9
Properties=species:S:1:pos:R:3:forces:R:3 energy=-4209.93154095953 pbc="F F F"
C       -0.16537102       0.48308441       0.23486760       0.06623270      -1.31708734      -0.38801148
C       -0.61070555       0.03954650      -1.17400282       0.00433879      -1.81113344       0.80809125
O        0.71613034      -0.49186164       0.82512261      -1.21858734      -0.38361628      -3.12595193
H        0.25195004       1.49020834       0.09185349       0.60431331       0.44816789       0.43858087
H       -1.09742615       0.56860357       0.85149193       0.11274751       0.24160561      -0.06608471
H       -1.14695760       0.89943154      -1.57334968      -0.38008811       0.20608720      -0.69378278
H        0.17851848      -0.37544510      -1.88191768      -0.25827798       0.84766681       0.71238013
H       -1.30774323      -0.84432491      -1.03199409       0.19264321       0.66435089      -0.31265835
H        1.00106608      -0.16018913       1.63725973       0.87667796       1.10395871       2.62743700
9
Properties=species:S:1:pos:R:3:forces:R:3 energy=-4209.411955831633 pbc="F F F"
C        0.48551063       0.26331652      -0.11022208       0.81330000      -3.82409005       1.42699954
C       -0.74461412       0.99242021      -0.36989672       0.93428049       2.43628344      -3.90298446
O        0.29804787      -1.15773043       0.44600049      -0.78818433       1.51756115      -0.71045201
H        0.92870176       0.03844783      -1.07405698       1.16212617       0.42958015      -0.49005338
H        1.13816287       0.61121370       0.70725160       0.34087102       1.09673483      -0.57613500
H       -1.33620125       0.62364008      -1.26310447       0.21012815      -0.18792416       0.87141717
H       -1.32435996       1.21084743       0.45366518      -1.94762822       0.42437562       2.44802556
H       -0.38848226       2.04009371      -0.77911700      -0.59042684      -1.26591451       0.67564405
H       -0.66233354      -1.11213198       0.59696991      -0.13446649      -0.62660648       0.25753858
9
Properties=species:S:1:pos:R:3:forces:R:3 energy=-4209.6216354124035 pbc="F F F"
C        0.11770325       0.53224868       0.03183537      -0.41800890      -0.11166086      -1.22214590
C       -1.27893928      -0.03009514      -0.33156195      -0.48346508       0.31786931       1.75281639
O        1.05657875      -0.43517189       0.28698850       1.65616764      -1.15766042       1.44537321
H        0.43638035       1.34942674      -0.64456998       0.14644501      -0.09779634      -0.98840031
H        0.13305559       1.12990892       0.93735623      -0.66539923       0.12700587       1.12889373
H       -1.40295305      -1.04880625       0.12131107       0.47021073       0.04640770      -0.59237270
H       -1.99833429       0.49540864       0.35827404      -0.10806820       0.24061995      -0.89564231
H       -1.60616239      -0.00093985      -1.39174767       0.12164862       0.01560264       0.16761496
H        1.50295266      -1.00256083      -0.36452918      -0.71953058       0.61961220      -0.79613711
9
Properties=species:S:1:pos:R:3:forces:R:3 energy=-4209.713216701126 pbc="F F F"
C        0.12869405       0.50793332       0.03095310      -0.83213878       1.89658077       1.84861184
C       -1.29607865       0.03520516      -0.30672236      -0.76639469      -1.51651831      -0.11895683
O        1.09052464      -0.46739493       0.26987187       0.65855506      -1.10199511      -1.47638468
H        0.45361893       1.43333409      -0.56477572      -0.05187227      -0.97458105      -0.11358723
H       -0.03380787       0.98317566       1.06795260       0.50790799      -0.35850956      -0.86271861
H       -1.39221635      -1.09592358      -0.08422679       0.44652743       1.02285824      -0.63461973
H       -1.96740192       0.37961879       0.52716454      -0.12802758       0.43340770      -0.92492384
H       -1.69378765       0.23964809      -1.36920093       0.34888546      -0.12169053       1.29698039
H        1.23296510      -0.99430766      -0.57459827      -0.18344262       0.72044789       0.98559874
9
Properties=species:S:1:pos:R:3:forces:R:3 energy=-4209.601578754632 pbc="F F F"
C       -0.06355477      -0.24862827      -0.55042206       1.18911304       0.38955697       1.33306736
C       -0.50548948       1.17936947      -0.23225658       0.87406011      -0.79875517      -1.18855721
O        0.53032616      -0.79868760       0.72554420      -1.62534361      -2.09143389      -2.56848232
H       -0.88327408      -0.93936762      -0.89870818       0.27399595       0.54045739       0.05781584
H        0.73225520      -0.13712612      -1.30649690       0.16478063      -0.68481266      -0.47068310
H       -0.74349847       1.05027681       0.79583159      -1.03238413       0.68001935       1.52234171
H        0.29378025       1.93766929      -0.36637650       0.11974312      -0.25239421       0.17608494
H       -1.29469349       1.44290614      -0.92266056      -1.02150553       0.46715138      -0.09351915
H        0.25716080      -1.76879093       0.50804856       1.05754047       1.75021078       1.23193198
9
Properties=species:S:1:pos:R:3:forces:R:3 energy=-4209.697121859797 pbc="F F F"
C        0.07714787      -0.35769758       0.47655528       0.55630835      -1.22095821      -0.23496486
C       -1.07978958       0.54194311       0.29347772      -1.63278608       1.22389204       0.21128191
O        0.91764190      -0.13361154      -0.67298597       0.31520339       0.61270864       0.73166968
H        0.52908361      -0.19572734       1.51172614       0.38943022       0.36859497      -0.90067386
H       -0.24305092      -1.38773450       0.56954675      -0.22956065      -1.23344559      -0.27777290
H       -1.90520503       0.52831805       1.10021908       1.36576049       0.31698290      -0.42023455
H       -0.50787111       1.48779593       0.15957579      -1.00278188       0.61543087       0.27904180
H       -1.67612055       0.40309624      -0.64277199       0.54275910      -0.32383900       0.00378960
H        1.18367471      -0.91186935      -1.19152323      -0.30433297      -0.35936661       0.60786313
9
Properties=species:S:1:pos:R:3:forces:R:3 energy=-4209.553018786412 pbc="F F F"
C        0.25602567       0.00298090       0.50521661       1.12528344       1.75979128      -4.03686305
C       -1.22039701       0.27302164       0.44535267       0.24804020      -1.85593260      -2.87262312
O        0.83882055      -0.21435278      -0.86940153      -1.49964360       0.15476741       0.86483011
H        0.82026415       0.88620987       0.80483669       0.08819342       0.56394869       0.91380237
H        0.48666864      -0.81750977       1.09619872       0.61364030      -2.09611124       1.81238464
H       -1.41444253       0.87697756       1.26065140      -1.03909023       2.32528176       1.85866141
H       -1.55132100       0.63139652      -0.60826425       0.41205047      -0.08219164       1.62564185
H       -1.75302572      -0.65603233       0.68753228      -0.38604382      -0.39291241      -0.34409477
H        1.58749419      -0.80891208      -0.76769213       0.43756981      -0.37664129       0.17826056
9
Properties=species:S:1:pos:R:3:forces:R:3 energy=-4209.424678321836 pbc="F F F"
C       -0.29450827      -0.11931728      -0.39976187       0.36419021      -0.01302012      -1.02919807
C       -1.01248048       0.18552990       0.91689326       0.15919804      -1.15536797      -1.24041940
O        1.16043945       0.00832722      -0.47466693      -0.79632650      -0.65243887       0.90986771
H       -0.55939189      -1.11353573      -0.72291892      -0.34747331      -1.18216643      -0.30224991
H       -0.67129048       0.51521792      -1.17090238      -0.39025215       1.06469621      -1.25259964
H       -2.12787162      -0.13651891       0.99101074       1.68216514       0.73878732      -0.16779740
H       -0.33983591      -0.46445518       1.42173300       0.23333215      -1.04813167       2.37923101
H       -0.68150326       1.17505966       1.15989067      -0.51034391       1.35960552       0.73923700
H        1.53301525      -0.89844419      -0.30643366      -0.39448968       0.88803606      -0.03607129
9
Properties=species:S:1:pos:R:3:forces:R:3 energy=-4209.6192089902 pbc="F F F"
C        0.43441457      -0.16794202      -0.23208898       0.89150685      -1.83343801      -1.75792821
C       -0.36174073       1.07163052      -0.75946072       0.09542192      -2.10317956       1.63340592
O       -0.09606175      -0.83874037       0.88352646      -0.12853336      -0.50364094      -0.46066752
H        0.61201282      -0.99505162      -1.07042108      -1.31789976       1.03582308       1.01717914
H        1.56952475      -0.02225674      -0.20523620      -0.64393078       0.96746552       0.84515787
H       -0.35048576       1.76241338       0.12915282      -0.32594916       0.28217263      -0.97718568
H        0.24467285       1.32094577      -1.59932244       0.67006471       1.38998378      -1.11040369
H       -1.38445672       0.79789199      -1.15919359       0.55194467       0.22945781       0.69162865
H       -0.03342153      -0.32024069       1.69587386       0.20737501       0.53535565       0.11881357
9
Properties=species:S:1:pos:R:3:forces:R:3 energy=-4209.488750899563 pbc="F F F"
C       -0.30373745      -0.45001108      -0.11433671       3.14291463       3.13478053       1.31010001
C       -0.93269400       0.72835731       0.73821394      -0.58081729      -1.54534167       0.30394869
O        1.13970119      -0.30785269      -0.51777989      -1.60729292      -0.02039481       0.87306828
H       -0.23724080      -1.41353548       0.27044074      -0.53448667      -2.21847776       1.57217725
H       -0.91576650      -0.42762391      -0.93339038      -1.88651063      -0.50592187      -3.15569713
H       -2.04624544       0.47139279       1.06567307       2.01596923       0.17488547      -0.24180641
H       -0.28313884       1.06030897       1.59738188      -0.54628680      -0.16049167      -0.40837575
H       -1.08927972       1.52424981       0.00371228       0.19848213       0.74071400      -0.02153613
H        1.21321252       0.35356832      -1.21908308      -0.20197169       0.40024777      -0.23187881
9
Properties=species:S:1:pos:R:3:forces:R:3 energy=-4209.925221925044 pbc="F F F"
C       -0.35275627      -0.38817329      -0.22542976       1.35522359       1.31938493      -0.47195122
C       -0.83240706       0.75234433       0.63524347       0.46315727      -0.63443893       2.61552734
O        1.07355333      -0.38243066      -0.38708024       0.43324464       0.25191933      -0.45952122
H       -0.55206820      -1.36024213       0.21470343      -0.24405823      -0.59097746       0.52983071
H       -0.93429431      -0.35971376      -1.16054995       0.03528670      -0.07782889      -0.75772678
H       -1.78996801       0.44310652       1.08638770      -0.60645921       0.26510960      -0.18485194
H       -0.17570300       0.75548416       1.60544818      -0.56973213       0.46660085      -1.47768442
H       -0.94241733       1.76164475       0.18510302       0.25996704      -0.19971107      -0.06243781
H        1.47506596       0.48918845      -0.67020173      -1.12662967      -0.80005836       0.26881539
9
Properties=species:S:1:pos:R:3:forces:R:3 energy=-4209.604900515301 pbc="F F F"
C       -0.22428031       0.43596152       0.31244580       2.17189436       2.02103420      -2.64534062
C       -0.67932110       0.03809954      -1.11146770       1.00490752      -1.90884781       1.27240655
O        0.79641217      -0.43990653       0.69943373       0.73047119      -0.30384826       2.49855587
H        0.26182450       1.52902310       0.11615100      -1.04593986      -1.45734704       0.61072662
H       -0.90155132       0.51129283       1.12206431      -1.93723690       0.32177369       0.93166568
H       -1.24050005       0.73980370      -1.67178337      -0.64174061       1.47769743      -0.73200819
H        0.26468171      -0.25001515      -1.59894922       0.42195683       0.65375825      -0.45982204
H       -1.17978958      -0.93374679      -1.25610661      -0.63547133      -0.27406471       0.76714345
H        0.91999660      -0.26401326       1.70747048      -0.06884119      -0.53015575      -2.24332732
9
Properties=species:S:1:pos:R:3:forces:R:3 energy=-4209.815725885385 pbc="F F F"
C       -0.08033338      -0.15044192       0.52650305      -0.77443613      -0.87634258      -2.02902761
C       -1.14479620       0.65185025      -0.30050781       0.84419685       1.10744600       1.24352967
O        1.14302468      -0.47876028      -0.16574376      -0.24597226       0.23315881       2.08032605
H        0.22509746       0.51335720       1.32801144       0.21928976       0.14737904       0.83289854
H       -0.66787410      -1.05387800       0.92650195       0.92927651       0.47600317      -0.03082645
H       -1.65811747       1.22368043       0.54583392      -0.18928334      -0.41789469      -1.03016779
H       -0.56958257       1.46659956      -0.86279244      -0.78759000      -0.81608723       0.04564022
H       -1.90244447       0.07011795      -0.90226910       0.70426768       0.37358193       0.21330460
H        1.02703332      -0.59666525      -1.09735340      -0.69974912      -0.22724450      -1.32567719
9
Properties=species:S:1:pos:R:3:forces:R:3 energy=-4209.735981712013 pbc="F F F"
C       -0.23734686      -0.49970815       0.05386185       1.71694122       0.53451825       1.24994801
C       -0.90012919       0.76986193       0.64562281       1.24285002      -1.87115739       1.61278675
O        0.98788808      -0.25987466      -0.66461604      -0.63950000       0.42836762      -0.49661828
H       -0.05350371      -1.31449778       0.80913234      -0.42833265       0.32161598      -0.09549237
H       -0.87088887      -0.84973204      -0.70948533      -1.45492110      -1.10433378      -1.31520277
H       -1.00806317       1.46197517      -0.10791971      -0.95856312       1.83411612      -2.77015386
H       -1.88094934       0.61253663       1.17477923       0.76070314       0.04102134      -0.03112933
H       -0.10739053       1.31733804       1.18261745      -0.13906152      -0.16269983       1.16844887
H        1.79296070      -0.32321065      -0.13455027      -0.10011594      -0.02144830       0.67741297
9
Properties=species:S:1:pos:R:3:forces:R:3 energy=-4209.543704308755 pbc="F F F"
C       -0.29539823      -0.50808471      -0.17243542       0.48463761       2.65070677       0.44096063
C       -0.91128886       0.71475122       0.67895179       0.94079783       0.33093633      -2.70552557
O        1.08331821      -0.27548815      -0.43237315       0.39524924       0.29876910      -0.20778860
H       -0.27597790      -1.46648578       0.37810963      -0.67483179      -0.08981461      -0.09588837
H       -0.83595976      -0.48340085      -1.13939854      -0.45968201      -0.76608092      -0.00424083
H       -2.02595723       0.71419164       0.67294998       0.38027940       0.20056113       0.44342436
H       -0.37806253       0.86815120       1.57252637       0.26143452      -0.88259530       2.72757088
H       -0.45916369       1.74521490       0.33966658      -1.18222556      -1.28183304      -0.95616613
H        1.15721348       0.53109678      -0.99632978      -0.14565933      -0.46064947       0.35765364
9
Properties=species:S:1:pos:R:3:forces:R:3 energy=-4209.61048062626 pbc="F F F"
C        0.22220576       0.20025453       0.41289391       2.15312129       0.23110949      -1.35990968
C       -0.03107725       1.01376183      -0.87068987       0.42999636      -0.38626889      -0.00339278
O       -0.11646492      -1.12109816       0.44794047      -0.40285724      -2.40687546      -0.34022891
H        1.38636674       0.19790751       0.66049232      -1.86405703       0.33575797      -0.40184530
H       -0.27798693       0.73568145       1.17689851      -0.75806545       1.19361154       1.76696692
H        0.03128166       2.06742743      -0.53668385       0.94156936       0.26076470      -0.67878106
H        0.47492870       0.64104876      -1.79716829       0.86524981       0.63527089       0.53350251
H       -1.02200340       1.03060140      -1.29651723      -1.71827007      -0.55492232       0.37851640
H       -1.02238937      -1.34488973       0.13779199       0.35331300       0.69155209       0.10517191
9
Properties=species:S:1:pos:R:3:forces:R:3 energy=-4209.547499936283 pbc="F F F"
C       -0.32840096      -0.43019921      -0.09792119       2.15051954       0.61319684      -0.27296751
C       -0.83837432       0.64859366       0.91410879      -0.79945697       0.94747637      -1.95437624
O        1.08039088      -0.22137896      -0.68109445      -1.34337425       0.53460258      -0.05178284
H       -0.12947917      -1.39909562       0.34830989      -0.52407432      -0.67957933       0.74347048
H       -1.04433880      -0.57181426      -0.90918034      -0.45778871       0.04947111      -0.41128907
H       -1.93905010       0.58642389       1.16233316       0.57482286      -0.94379455       0.09863349
H       -0.27142358       0.80173008       1.85024133       0.22346950      -0.05164683      -0.20103781
H       -0.96236735       1.61705195       0.31495956       0.89286089      -0.46172373       0.65315939
H        1.09962539      -0.12417416      -1.68116435      -0.71697860      -0.00800240       1.39619011
9
Properties=species:S:1:pos:R:3:forces:R:3 energy=-4209.88783233003 pbc="F F F"
C        0.16457545      -0.37660830      -0.34670145       2.29287829       0.43425200       0.37622210
C       -1.23243898       0.05481227      -0.36687236      -1.73635372       1.36165207      -1.42412674
O        0.99416860       0.24200429       0.66144870      -0.21475634      -3.80182913       0.23343814
H        0.16662221      -1.39598425      -0.05466561       0.25867711      -1.89844137       0.23234572
H        0.71413223      -0.30114673      -1.31317530      -0.39587870      -0.02508955      -0.30676544
H       -1.27606792       1.12295565      -0.76315366      -0.34409009      -0.59835247       0.57391110
H       -1.89290453      -0.54574499      -1.07860598       0.67751330       0.34197073       0.54660135
H       -1.66666869      -0.03058644       0.64138339      -0.17357154       0.22364434       0.18556938
H        0.89785001       1.14213327       0.57180728      -0.36441826       3.96219332      -0.41719566
9
Properties=species:S:1:pos:R:3:forces:R:3 energy=-4209.695094749065 pbc="F F F"
C       -0.22177636      -0.42792740       0.07542229       0.05577705       1.30648395       0.42186396
C       -0.95469592       0.88557591       0.35018785       0.40841077      -0.03446081       0.00040917
O        1.07634413      -0.43971153      -0.42071832       2.02316904       1.03150486       0.90232713
H       -0.34092909      -1.13907511       0.85815712      -0.09246608      -0.83951420       1.93370045
H       -0.86617758      -0.85024763      -0.62510398      -1.01226797      -1.34689455      -2.48265133
H       -2.03260393       0.73211754       0.23904924      -0.61928572      -0.46548618       0.71199220
H       -0.70487924       1.32202957       1.33307006      -0.07768069       0.43723366      -0.05377956
H       -0.85884774       1.57781385      -0.49632199       0.86913470       0.53076654      -0.09010781
H        1.73618987      -0.11781564       0.29775808      -1.55479114      -0.61963323      -1.34375415
9
Properties=species:S:1:pos:R:3:forces:R:3 energy=-4209.551595457449 pbc="F F F"
C       -0.14306672       0.25362317      -0.53121726       2.16429608      -0.19045793       4.49913591
C       -1.18866525      -0.10465204       0.48985112      -0.95111006       3.39383288       1.95441244
O        1.19227639      -0.17639309       0.03553833      -1.70780506      -0.00560295      -0.72553976
H       -0.32624174      -0.14651842      -1.44799304      -0.53847949      -1.65001668      -3.54370218
H       -0.05113872       1.31134075      -0.57952223      -0.33297331       1.75639480      -0.45314000
H       -0.88315183       0.46115572       1.49894237      -0.57393943      -1.25340635      -1.65605528
H       -2.27248505       0.24468775       0.29843385       1.30639829       0.06282666      -0.31253288
H       -1.34908921      -1.12378691       0.70248594       0.34937525      -2.13952751       0.32658926
H        1.82471160       0.27642011      -0.54353733       0.28423764       0.02595714      -0.08916751
9
Properties=species:S:1:pos:R:3:forces:R:3 energy=-4209.460652665288 pbc="F F F"
C       -0.54203709       0.16524011      -0.31587507       1.61451700      -0.89249790      -3.33196801
C       -0.40804688       0.11947987       1.17461720      -1.38786519      -1.23646885      -0.00223429
O        0.87044699      -0.24442287      -0.72640659      -1.61003834       1.04569072       2.92178031
H       -1.23730911      -0.65401449      -0.77841712       0.54294195       1.00877770       0.94182915
H       -0.83307529       1.17390255      -0.96257912       0.48312436      -1.71256494       2.08031510
H       -1.39472907       0.18136314       1.63675683      -0.66177454      -0.10951846       0.36558647
H        0.07467003      -0.86026827       1.52049826      -0.31847239       1.12269768      -0.52584447
H        0.08951838       0.98881796       1.52243772       1.29588170       1.13114113       0.63489320
H        0.80429529      -0.34423530      -1.64102456       0.04168550      -0.35725712      -3.08435739
9
Properties=species:S:1:pos:R:3:forces:R:3 energy=-4209.452962471646 pbc="F F F"
C        0.25439525      -0.01672285      -0.51747760       2.60632922      -3.02532399       3.65994922
C       -0.56392789       1.15086701      -0.26911995      -1.87912292       1.34932327      -0.91976795
O        0.32347816      -1.02276808       0.69835983      -1.21312375       0.67302687      -1.43305639
H        0.09889878      -0.56386346      -1.43421521      -0.37561367      -0.52525955      -0.87995416
H        1.36605316       0.27721856      -0.43850179      -1.19970855      -0.14068260      -0.65607271
H       -0.56588045       1.68651682      -1.25606929       0.04324699       0.50881271       0.58838590
H       -1.63878776       1.12588601       0.04931208       0.11977758      -0.97297184      -0.46258633
H       -0.15665323       1.70945604       0.54564670       0.86192646       1.13900665       0.70157646
H       -0.55088905      -1.51650234       0.82167111       1.03628871       0.99406852      -0.59847398
9
Properties=species:S:1:pos:R:3:forces:R:3 energy=-4209.803233733282 pbc="F F F"
C       -0.05446494      -0.53832754       0.29339592      -0.34834702      -0.09856417      -3.54088451
C       -1.14090984       0.50877004       0.22100300       0.47609044       0.97992215       1.99307011
O        1.10808902       0.02662398      -0.40317333      -0.11500571      -0.03566177       3.01210599
H        0.24860490      -0.89966673       1.26278494       0.19099410      -0.23997311       0.92378113
H       -0.49425526      -1.35714784      -0.37764411       0.77897284      -0.14087250       1.05673145
H       -2.00866307       0.38869860       0.90827007       0.04077631      -0.35735385      -0.11899174
H       -0.61698656       1.43864500       0.58145252      -0.58319710      -0.00802405      -0.58674764
H       -1.49831693       0.56517210      -0.80389603      -0.19482124       0.46131096      -0.55881332
H        1.02371480      -0.20760384      -1.30087173      -0.24546262      -0.56078366      -2.18025147
9
Properties=species:S:1:pos:R:3:forces:R:3 energy=-4209.436609438618 pbc="F F F"
C       -0.34079696      -0.34075185      -0.23731793       0.40026371       0.78861391      -2.42306616
C       -0.83324035       0.72058284       0.69296392       1.97019495      -4.77010197       3.70725865
O        1.05775624      -0.32353414      -0.49840546      -0.27336603      -0.37902398       0.46391631
H       -0.80436218      -1.33341278       0.03384466       0.45055316       0.20141885       0.07511720
H       -0.71242990      -0.09406995      -1.24968410      -0.50001779      -0.25388946      -0.28376126
H       -1.84388319       0.49515921       0.83575829      -2.61703154       0.54164452       0.13965303
H       -0.44317921       0.23782599       1.73602774      -0.54098251       1.22842875      -1.30424144
H       -0.47182870       1.68716455       0.75306604       0.67766072       2.72682752      -0.74758342
H        1.47447255      -0.38469038       0.37284249       0.43272533      -0.08391814       0.37270709
9
Properties=species:S:1:pos:R:3:forces:R:3 energy=-4209.9083164065105 pbc="F F F"
C        0.37023030       0.27959898       0.44030069      -1.84502711      -1.83344635      -1.24403149
C       -0.13544457       0.93857781      -0.85384542      -0.38033051       1.74312739       2.66880847
O       -0.21760360      -1.08935340       0.34885053       0.38284037       1.09820499       0.25984650
H        1.46674753       0.16369050       0.42087789       0.28783245       0.44573661       0.45178235
H       -0.09666210       0.84904179       1.28663678       0.76259501      -0.21196366       0.15631141
H        0.04771084       0.32888994      -1.68529409       0.53851215      -1.09795235      -1.85278665
H       -1.21993923       1.13018542      -0.74766715      -0.17575723      -0.33575504      -0.13473209
H        0.28070628       1.96246704      -0.91813436       0.34159227      -0.03518889      -0.40154500
H        0.17682194      -1.65996988       1.03398364       0.08774266       0.22723730       0.09634654
9
Properties=species:S:1:pos:R:3:forces:R:3 energy=-4209.773087755322 pbc="F F F"
C        0.14831940      -0.30579212       0.46063433      -0.26170567       0.56246511      -1.04960126
C       -1.11950680       0.49629319       0.34779780       1.23526912       2.65365819       1.28134931
O        0.90798524      -0.24090638      -0.70657955       1.17281183       0.32122609      -1.69586702
H        0.69915883       0.12425168       1.31958474       0.29298293      -0.58640424       0.52104350
H       -0.06134793      -1.38967731       0.44720543      -0.18367813      -0.21074434       1.28562228
H       -1.65531051       0.47186633       1.30799393      -0.29473370       0.09806121       0.26186492
H       -0.83660744       1.65405025       0.15844039      -0.65071109      -2.16822421       0.18888760
H       -1.76199494       0.12174536      -0.40017156      -1.17866356      -0.44488192      -1.57006591
H        0.77508410       0.57023134      -1.25060450      -0.13157179      -0.22515589       0.77676658
9
Properties=species:S:1:pos:R:3:forces:R:3 energy=-4209.7225189621495 pbc="F F F"
C        0.16886802       0.35188265      -0.33241929       0.86991133       0.51781327      -1.14994582
C       -1.30955366      -0.00788303      -0.26582006      -1.08032312       0.44914959       0.57324251
O        1.03634429      -0.29219908       0.57508943       0.60236051      -1.22589313       0.17266049
H        0.57976593       0.34402009      -1.43941339      -0.69448119      -0.05607031       1.53294946
H        0.25673518       1.37379539       0.02382166      -0.11083003       1.13684826      -0.23100747
H       -2.05323734       0.83901353      -0.28851262       0.88346798       0.28309272       0.02163964
H       -1.66253519      -0.56071487      -1.11331203      -0.19087311      -1.23673537      -0.91194861
H       -1.63081713      -0.52007436       0.66481311       0.49824106      -0.26982295       0.00340733
H        1.65133624      -0.93848639       0.15267018      -0.77747342       0.40161786      -0.01099753
9
Properties=species:S:1:pos:R:3:forces:R:3 energy=-4209.735956734002 pbc="F F F"
C       -0.40289858       0.34441049      -0.30333714       2.07410193      -0.54760953       0.13284223
C       -0.50898991      -0.02843304       1.17331587      -3.19046950      -0.37803133      -2.39647818
O        0.81667783      -0.29574507      -0.84865030      -0.72355034       1.04341020       0.81976453
H       -1.25353504       0.01639607      -0.87761895      -0.76093984      -1.16334487      -0.46149207
H       -0.46875096       1.42053205      -0.57439746       0.57779367       0.45927115       0.62216618
H       -1.49153343       0.23846702       1.56307628      -0.77593673       0.46850033       0.19072116
H       -0.51876173      -1.09137448       1.31996711       0.34702197      -1.33786725      -0.21308261
H        0.13481330       0.37300672       1.85173937       2.84210366       1.72282159       2.01604348
H        1.49949505      -0.02927244      -0.17857159      -0.39012488      -0.26715029      -0.71048477
9
Properties=species:S:1:pos:R:3:forces:R:3 energy=-4209.851500928321 pbc="F F F"
C        0.09025187      -0.25904575       0.49356907      -1.67863774      -1.50505366      -0.93633444
C        0.82137322       1.03178928       0.15055566      -0.43271428       0.29920537       1.40303850
O       -0.85264715      -0.71607762      -0.55680316       2.11721146       0.49131240      -1.40847006
H        0.73089921      -1.16331397       0.82787466      -0.19269854       1.18437773      -0.36477246
H       -0.65363913      -0.09535411       1.30641731       0.44135123       0.16052684       0.23697561
H        1.74457347       0.86187819      -0.45823762      -0.42434919       0.35800845       0.01084430
H        0.08043228       1.80854637      -0.24739109       0.85252979      -0.85973922      -0.03732604
H        1.09557761       1.42480040       1.18028897       0.38678825       0.04154970      -0.82439868
H       -0.32745593      -0.67957386      -1.44605816      -1.06948093      -0.17018760       1.92044333
9
Properties=species:S:1:pos:R:3:forces:R:3 energy=-4209.553358749387 pbc="F F F"
C        0.31029527      -0.07808459      -0.53255940       0.56372660      -0.53887169       1.59205327