9
Properties=species:S:1:pos:R:3:forces:R:3 energy=-4209.607501540154 pbc="F F F"
C        0.12944725      -0.13487454      -0.57471071      -2.68518398       0.57658546       1.02239786
C       -0.56143981       1.27770205      -0.04839856       4.05072140      -1.80977538      -0.52811090
O        0.41846937      -1.00406912       0.58696818      -0.58281035       0.35250681      -1.87837386
H       -0.72085579      -0.58439849      -1.27132605       1.64846441       0.30438218       0.94636689
H        1.03810696       0.12637924      -1.17848208      -0.20390948      -0.32962075       0.20848666
H       -1.27651208       1.05519709       0.72985120      -1.01733937      -0.06294627       0.17819741
H        0.33167908       1.78940586       0.46797019      -1.14948421      -0.04074535      -0.57717866
H       -0.84354070       1.78527675      -0.98371879      -0.49196145       0.48011586       0.29453465
H       -0.02472328      -1.85343582       0.34356884       0.43150308       0.52949750       0.33367995
9
Properties=species:S:1:pos:R:3:forces:R:3 energy=-4209.5488597514495 pbc="F F F"
C        0.23409120      -0.20845264      -0.45352518      -2.70760220      -2.05275580      -1.06819106
C       -1.36260086      -0.01002186      -0.21830284       2.12825399       2.66360589       1.05529343
O        1.01716547       0.16182424       0.63588517       0.93988431       1.09610142      -0.18679200
H        0.30756650      -1.38366711      -0.62103337       0.33246187       1.81475319      -0.30018552
H        0.36823952       0.42093232      -1.36114883       0.81518328      -0.52496999      -0.18753047
H       -1.70070864       1.04500354      -0.55055250       0.58679582      -0.89946014       0.71687550
H       -2.08646737      -0.62389684      -0.71128646      -0.31785769      -1.45997440      -0.57277596
H       -1.39494768      -0.07994186       0.88907729      -0.74910587       0.00547506      -0.02793185
H        1.80690766       0.65473541       0.26686681      -1.02801351      -0.64277527       0.57123797
9
Properties=species:S:1:pos:R:3:forces:R:3 energy=-4209.962290184473 pbc="F F F"
C        0.07103041      -0.15895179       0.47496617       0.59086238       0.33630695       0.12096501
C       -1.31194066       0.26074804       0.01783116      -0.22239206      -1.37731657       0.95388865
O        1.16300332      -0.13663001      -0.43521681      -0.32103048      -1.58467076       0.62910842
H        0.33474285       0.46019854       1.36363186      -0.04233594       0.10817192       0.15063771
H        0.00530785      -1.18302214       0.83070865       0.09422734      -0.79258848       0.37866351
H       -1.93441818       0.37859944       0.92465269       0.00570677       0.52990188       0.11034307
H       -1.27166531       1.14307292      -0.56141173      -0.14676645       1.85512301      -0.82415355
H       -1.90589631      -0.47126486      -0.53840341       0.23232510      -0.57144562      -0.62534227
H        1.09695682       0.62668125      -0.98303806      -0.19059666       1.49651770      -0.89411055
9
Properties=species:S:1:pos:R:3:forces:R:3 energy=-4209.723723412627 pbc="F F F"
C        0.47364344       0.13543587      -0.15749152      -0.48378703       0.39199325       0.00575058
C       -0.75042153       1.10867732      -0.27897797       0.99248883      -3.72439963       1.17380052
O        0.25191103      -1.13516878       0.33780040      -0.40662555      -1.48607537      -0.89629614
H        0.84449486      -0.06534069      -1.15317059       0.59697395       0.13509981      -0.96180112
H        1.27135142       0.59318796       0.44576698       0.46873014       0.72557832      -0.01893504
H       -1.59779427       0.49785697      -0.66675173       0.07461049       0.77360808      -0.30840004
H       -0.89304663       1.37666408       0.74258335      -0.95172425       0.73252174       1.35121406
H       -0.32389729       1.91536388      -0.77981817       0.08580091       2.16562112      -1.68602781
H       -0.00266145      -1.12524346       1.25036904      -0.37646754       0.28605263       1.34069500
9
Properties=species:S:1:pos:R:3:forces:R:3 energy=-4209.602995763069 pbc="F F F"
C        0.02028140      -0.18934046      -0.46311720       1.99931933       3.09281247      -1.71082621
C       -1.29473342       0.16087568       0.08143143      -2.84918171      -1.52490170       0.53836009
O        1.15223566       0.06600695       0.39216882      -1.42518048       1.04055263       0.52077220
H        0.14134365      -1.19940607      -0.71223984      -0.51945179      -2.35191360      -0.94612490
H        0.07230595       0.46351878      -1.46646956       0.35303249      -1.14261633       1.22771815
H       -1.50540351      -0.47298613       1.01508205       0.24571844       1.40210113      -0.20683621
H       -1.57570004       1.25495277       0.06322931       0.43038249      -0.69429473       0.70443876
H       -2.10701100      -0.32714922      -0.58341049       0.99125655       0.63221765       0.23815153
H        1.87009840      -0.42899389       0.00697006       0.77410471      -0.45395756      -0.36565332
9
Properties=species:S:1:pos:R:3:forces:R:3 energy=-4209.596601656071 pbc="F F F"
C       -0.02992142      -0.11279516       0.50261351       1.36101161      -0.93976645      -0.10012082
C       -1.22960737       0.53263263      -0.17790674       1.81970894      -2.47030109       1.16348803
O        1.11557219      -0.38228895      -0.36611338      -0.00256138       0.00646545       1.28763797
H        0.35390461       0.54024764       1.32422401      -0.33673710       0.29063176      -0.09697410
H       -0.38016227      -1.03862531       1.06954881       0.20891444       0.23848747      -0.53400655
H       -1.74419901       0.71963641       0.70064733      -2.03326216       1.42629135       2.09244330
H       -0.94444446       1.36910222      -0.70293613       0.59478748       2.65578737      -1.55339935
H       -1.88295769      -0.10729360      -0.71677681      -0.52818557      -1.18562153      -1.23701794
H        1.89763826      -0.41917496       0.26751032      -1.08367625      -0.02197440      -1.02205056
9
Properties=species:S:1:pos:R:3:forces:R:3 energy=-4209.658295686516 pbc="F F F"
C        0.08395976      -0.58141289      -0.08860001       0.94456496      -0.08152665       3.89721079
C       -1.07954026       0.06692226      -0.70899867      -0.55898291       1.84595085       1.75971142
O        0.86401759       0.47608163       0.69092046       0.84771530      -1.98328948      -1.41492636
H       -0.20094442      -1.33349770       0.74138821      -0.15200574       0.46416113      -1.01661673
H        0.74383115      -1.14142549      -0.72599904       0.77934935      -0.33520030      -1.12970682
H       -0.71511174       0.95709025      -1.23577886      -0.13568232      -0.05752525      -1.07842123
H       -1.86688529      -0.54865131      -1.12363645      -0.12901714      -0.54697303      -0.94139201
H       -1.60607269       0.58214114       0.14172629       0.05081817      -0.22245942      -0.10607077
H        1.79275000       0.05653996       0.73932162      -1.64675966       0.91686214       0.03021160
9
Properties=species:S:1:pos:R:3:forces:R:3 energy=-4209.390903659238 pbc="F F F"
C       -0.36525623      -0.23436407      -0.35310740       0.36471009       0.50060354       2.75659113
C       -0.77432748       0.48235565       1.07423601       0.17986467       1.69497371      -2.02146265
O        1.01980547      -0.29824013      -0.63326986       1.01052301       0.95913756      -0.35612527
H       -0.74008125      -1.24396934      -0.41734979      -0.69371747      -0.89275368       0.06735849
H       -0.71544496       0.37819443      -1.10446883      -2.09425588       1.40592097      -2.18233134
H       -1.78438875       0.48918374       1.59511367       0.48672210      -0.76083509      -1.00855175
H       -0.03386134       0.14994578       1.74977276       1.18458918      -0.76277633       1.52247340
H       -0.54848950       1.60996740       0.97850701      -0.14458373      -1.08871376      -0.10911449
H        1.21290945       0.39416326      -1.34248149      -0.29385192      -1.05555692       1.33116254
9
Properties=species:S:1:pos:R:3:forces:R:3 energy=-4209.359385007917 pbc="F F F"
C        0.08475580       0.53352452      -0.11882563      -2.00345968       0.43259524       5.26465370
C       -1.01700565      -0.19531006      -0.73956726       0.73341207      -3.99828220      -0.44279588
O        0.85169155      -0.26560325       0.81467543       0.19767039       0.44670967      -1.36064445
H        0.64082415       1.02486956      -0.82699552       2.23814280       1.62498956      -2.14454476
H       -0.43614484       1.32968184       0.54383758       1.02400120      -0.52810802      -0.69009952
H       -0.92441327      -0.19697089      -1.81600046      -0.38194327      -0.22462799      -0.96457827
H       -1.09741654      -1.29529687      -0.34033683       0.74459894       1.23509249      -0.79389403
H       -1.94642756       0.08901419      -0.40536326      -2.97262799       1.53417300       0.51242928
H        1.35214735      -0.76697331       0.14190140       0.42020555      -0.52254169       0.61947388
9
Properties=species:S:1:pos:R:3:forces:R:3 energy=-4209.504723140752 pbc="F F F"
C        0.13218324      -0.07745646       0.59682103      -0.05933217      -0.29646827      -2.77992708
C       -1.28343779       0.22357200       0.01124214      -1.97214863       1.82977543       1.50734770
O        1.03130251      -0.15663761      -0.54784760      -1.08478697      -0.59398458      -0.38856519
H        0.68611629       0.54121857       1.28892936      -0.64944538       1.08405071       1.07953657
H        0.19396102      -1.08387506       0.98270430      -0.68975576      -0.96619462       0.87344562
H       -2.21206798       0.02122017       0.69977528       1.60114366       0.15349076      -0.38053348
H       -1.57063214       1.30202217      -0.39950764       1.22511265      -1.60791348       0.72828570
H       -1.49233266      -0.45081328      -0.81386748       0.33180181      -0.52932801      -0.67792971
H        1.74217318       0.41396781      -0.30758189       1.29741079       0.92657212       0.03833988
9
Properties=species:S:1:pos:R:3:forces:R:3 energy=-4209.455001736644 pbc="F F F"
C       -0.27927805      -0.46313213      -0.00864050       0.97346493       1.62777931       3.26208270
C       -0.92038246       0.86992570       0.23672690      -0.76800251       3.40631296      -1.86809762
O        1.09865652      -0.44586319      -0.19687742       1.52435216      -0.32087694      -0.81862224
H       -0.26700241      -0.80148610       1.05513868      -0.54019025      -0.94212868      -0.25349027
H       -0.92047535      -1.08620415      -0.58070540      -0.63047542      -1.30822079      -1.44819731
H       -1.84731396       0.86375039       0.81701127      -0.12427891      -0.49689241       0.95905549
H       -0.21390575       1.66606850       0.64312830      -0.42077459      -0.97271936       0.15031961
H       -1.39957980       1.45866689      -0.64326692       0.97702041      -0.91739960       0.12053111
H        1.50316976       0.12766634      -0.88409591      -0.99111581      -0.07585449      -0.10358142
9
Properties=species:S:1:pos:R:3:forces:R:3 energy=-4209.616360250822 pbc="F F F"
C       -0.34436581       0.08431089      -0.44660349       3.41532473      -0.35192322      -1.40419108
C       -0.82836037       0.33220580       0.88731344      -4.06038643      -0.85755388       1.78577912
O        1.09063081      -0.37517245      -0.46260336      -1.57654329       0.92096809      -0.36352141
H       -0.88293742      -0.67140959      -0.99170838      -0.87206262      -0.92749725      -0.32324765
H       -0.48710169       1.00687911      -1.04124920       0.51876026       0.23112964      -0.26023361
H       -1.98616026       0.61903820       0.66121189       1.92219744      -0.71119696       1.04321392
H       -0.79136968      -0.61331938       1.58513542      -0.15330929       1.43319189      -0.93578973
H       -0.44923952       1.21248540       1.40609632       0.60553156       0.35594175       0.21371834
H        1.25814437      -0.56317338       0.47204844       0.20048759      -0.09306006       0.24427215
9
Properties=species:S:1:pos:R:3:forces:R:3 energy=-4209.6575309073 pbc="F F F"
C       -0.33329098      -0.43088810      -0.18236284       1.21845159      -0.09574861      -1.15919233
C       -0.90571664       0.71721026       0.70203344      -2.00337967      -2.95217501      -0.18089085
O        1.14340018      -0.27595338      -0.44217842      -2.04927067       0.50054934      -0.88750292
H       -0.27075388      -1.39487422       0.37788175      -0.82257140       0.31672389       0.14101113
H       -0.95211701      -0.66655286      -1.17035661       1.06635463       0.61271393       1.44379316
H       -2.05600670       0.53346887       0.80595700       1.51045241       0.14665697       0.13266734
H       -0.42100597       0.54401963       1.65308816       0.11429830       0.20384715       1.04090867
H       -0.82123551       1.75061972       0.46654078       0.56917034       1.36800557      -1.05480009
H        1.13464271       0.20028815      -1.30669117       0.39649448      -0.10057318       0.52400583
9
Properties=species:S:1:pos:R:3:forces:R:3 energy=-4209.827359270993 pbc="F F F"
C        0.20605299      -0.25316403      -0.43229060       0.61033211       0.03788480       0.04226313
C       -1.28884487      -0.01761673      -0.31049422      -0.06813141      -0.48654891       0.18155980
O        1.02533924       0.26056405       0.64385339       0.04876529       0.56761189      -2.11473780
H        0.42062219      -1.32659633      -0.63047290       0.08534716      -0.12114216       0.04757364
H        0.52012850       0.29443939      -1.33270133       0.54501004       0.15470262      -0.13933385
H       -1.86026359      -0.93182621      -0.09866585      -0.07942951      -0.18694971       1.11739607
H       -1.35497277       0.81047959       0.39213639      -0.70311161       0.26011436       0.72622573
H       -1.84774216       0.28063054      -1.19703602       0.34478892       0.59147857      -0.98578972
H        0.74829560      -0.03800872       1.49770756      -0.78357095      -0.81715141       1.12484301
9
Properties=species:S:1:pos:R:3:forces:R:3 energy=-4209.627598986594 pbc="F F F"
C        0.47735347      -0.07188376       0.24419894      -0.59239599      -1.77745378       0.96386062
C        0.39435322       0.94431589      -0.88734747      -1.32645006      -2.07525805      -0.10672074
O       -0.74059230      -0.81552933       0.63009893      -0.24590017       0.89828309      -1.46627597
H        1.23974890      -0.89171738       0.08202500       0.00180445       0.75273082       0.01392936
H        0.65024425       0.46224629       1.19932284       0.90243583       0.06377946      -0.10476387
H       -0.48872211       0.78446616      -1.52766491      -0.35369070      -0.43385693      -0.19551760
H        0.17483449       1.84561128      -0.41815155      -0.08680945       2.68020175       0.68581421
H        1.20016020       0.97550059      -1.59525820       1.23023968       0.15205289      -0.32041779
H       -1.40889474      -0.62838864      -0.07825047       0.47076645      -0.26047935       0.53009178
9
Properties=species:S:1:pos:R:3:forces:R:3 energy=-4209.756917326832 pbc="F F F"
C       -0.17277066      -0.15817999      -0.51453237      -0.05209379      -2.53008464      -0.63212875
C       -0.23418564       1.23985211      -0.08922386       1.88537836       2.55898410       0.22194710
O        0.31174239      -0.98778368       0.57321997      -3.24013504       2.48684434       0.67645575
H       -1.13925747      -0.63248914      -0.89836011       0.35996429       0.64599815       0.45324366
H        0.48548991      -0.17809114      -1.41604764       0.16802238      -0.30961818       0.09797421
H       -0.75689005       1.47091974       0.83731501      -0.27085638      -0.26322730       0.69528425
H        0.85494642       1.61862688       0.00638726      -1.06169836      -0.52203765       0.44291590
H       -0.58758669       2.00327438      -0.79983978      -0.57493280      -0.32803510      -0.65893625
H        1.04323431      -1.49358785       0.36602645       2.78635134      -1.73882367      -1.29675598
9
Properties=species:S:1:pos:R:3:forces:R:3 energy=-4209.429044160041 pbc="F F F"
C       -0.00235633      -0.50489325       0.25088936      -1.58060291      -0.00413079      -3.40413482
C       -1.19254828       0.60602569       0.36831984       0.32843141      -3.00261975       2.24014455
O        1.10741827      -0.12003824      -0.58444371      -0.52563133       0.33606038       1.31119514
H        0.17468249      -0.95953831       1.18595393       1.18823742      -0.29966904       2.25199847
H       -0.28217291      -1.47565429      -0.35536444      -0.76965331       1.57023663       0.83622226
H       -2.08983878       0.03032652       0.78740072       0.54098293       0.40145434      -0.79638214
H       -1.19312119       1.47878839       1.07281228       1.05769859      -0.29983148      -0.23507845
H       -1.34511913       0.91529930      -0.61797454      -0.78010639       0.90570715      -2.13367079
H        1.39471187       0.70958607      -0.17428962       0.54064364       0.39279260      -0.07029422
9
Properties=species:S:1:pos:R:3:forces:R:3 energy=-4209.582296195459 pbc="F F F"
C       -0.18966557       0.37681279       0.49487063      -0.43921434      -1.19941627      -0.44072676
C        0.31920528       0.91469944      -0.86209160       0.51962652       1.79836467       1.47870031
O       -0.15644588      -1.15303766       0.31649831      -0.87741072       2.83366263      -0.31256847
H        0.36482443       0.83104538       1.36713005       0.27550812      -0.83310022      -0.35531882
H       -1.26129553       0.65100933       0.74399219       0.50151726      -0.20374421      -0.50114764
H        0.71926159       2.00580955      -0.95985533      -0.75394742      -1.42241881       0.48080903
H        1.09026162       0.24134235      -1.15161822       1.66723120      -0.76248590      -0.14263258
H       -0.36952614       0.71443501      -1.63762772      -1.69201175       0.05128564      -1.25087623
H        0.39520122      -1.53232483       0.98992233       0.79870112      -0.26214749       1.04376116
9
Properties=species:S:1:pos:R:3:forces:R:3 energy=-4209.392813408404 pbc="F F F"
C        0.27023529       0.41827965      -0.09621766       0.55719085       2.04918290      -0.20254319
C       -1.02272617       0.09688223      -0.88074640      -0.23556099       1.86778348      -0.18028284
O        0.69210421      -0.50667549       0.86353118      -1.45835769      -1.89106251      -1.08784211
H        1.16359159       0.46125868      -0.73344063      -0.05981965       0.18375712      -1.32169157
H        0.24572167       1.56266858       0.23295319      -0.39063473      -1.78562711       0.09272396
H       -1.31987339       0.94863897      -1.61394889       0.72939137      -1.19607651       0.75259440
H       -1.16956449      -0.86508389      -1.32595416       1.17900053      -1.29600882      -1.36713330
H       -1.92275515      -0.04968929      -0.30159866      -0.74510128       0.78544482       1.61135696
H        0.98261384      -0.15536145       1.67643120       0.42389159       1.28260663       1.70281769
9
Properties=species:S:1:pos:R:3:forces:R:3 energy=-4209.351753202263 pbc="F F F"
C       -0.14322325      -0.06168000      -0.43813902       0.49162160      -1.95234589       0.83587496
C       -0.09277193       1.41887022      -0.02069691      -2.13061483      -2.68098316      -2.38855846
O        0.20110563      -1.25189214       0.41802132      -0.95445028       1.28600409      -1.04267255
H       -1.22528963      -0.18778319      -0.56574703      -0.36352727      -0.53206151      -0.36099062
H        0.34195846      -0.24463933      -1.45828191      -0.22026324       0.41422146       0.82236561
H       -0.70115744       1.65855596       0.82617513      -0.69427386       0.36490400       0.90044950
H        0.82855606       1.84271741      -0.03043143       3.68057219       1.55679218       0.52918269
H       -0.52586714       1.73676849      -1.00430242      -0.32498047       0.87368853       0.63828381
H        0.90072628      -1.10777379       1.06471083       0.51591621       0.66978029       0.06606507
9
Properties=species:S:1:pos:R:3:forces:R:3 energy=-4209.411295090145 pbc="F F F"
C        0.19664241       0.42990088       0.24757765      -0.32090671      -1.90325381       0.23788275
C       -0.80345430       0.63786641      -0.79554321      -1.27792028      -2.56339123      -1.68699779
O        0.52715367      -0.99620642       0.46551896       2.58042484       2.58231650       0.57509453
H        0.98171468       1.13744532       0.10507198       2.12515334       0.39177059      -0.69721767
H       -0.13960679       0.76716654       1.18034949      -1.43922195       0.81459167       2.22239875
H       -1.42892742       1.47753744      -0.60849576      -0.56060996       1.65183805       0.09952628
H       -0.34423386       0.67610277      -1.83354520      -0.60977912      -0.12870697       0.67330332
H       -1.57946257      -0.22505942      -0.70847324       1.05142809       0.80459944      -0.48722876
H        1.37264676      -0.74515136       1.00534499      -1.54856830      -1.64976425      -0.93676140
9
Properties=species:S:1:pos:R:3:forces:R:3 energy=-4209.564943898322 pbc="F F F"
C       -0.48193689      -0.13048136       0.29123367      -3.19070378       1.50084317       0.14578660
C       -0.19841448       1.05718333      -0.65487421      -2.65971417       1.41289884       0.66698946
O        0.58175731      -0.90698389       0.32819414       3.47699460      -2.80906730       0.40819356
H       -0.77808159       0.19191223       1.38972617      -0.15581879      -0.01366125      -1.49114759
H       -1.30469515      -0.80468035      -0.14102271       0.24899300       0.93899610       0.58129500
H        0.81103369       1.16561774      -0.93156759       2.16872840      -0.46519199      -0.56586354
H       -0.79268646       1.07063736      -1.59293003       0.01183325      -0.19904351       0.05759667
H       -0.37721230       2.05663442      -0.18817729      -0.41001653      -0.17941576       0.08963334
H        1.31333191      -0.32739548       0.58759790       0.50970401      -0.18635835       0.10751650
9
Properties=species:S:1:pos:R:3:forces:R:3 energy=-4209.396842107549 pbc="F F F"
C        0.39458879       0.04197049       0.45408744      -0.00103435      -1.74780233      -1.79974998
C       -1.15117651       0.04284478       0.66253414       1.69292429       5.05600841      -1.33502546
O        0.73734285      -0.14128696      -0.99715716      -0.62766932      -0.20979771       1.74267945
H        0.96256703       0.95614766       0.68524746      -0.51100540       0.44223656       0.89661182
H        0.88229709      -0.81682510       0.97832619      -0.10828258       0.26880639      -0.04321876
H       -1.75601305      -0.74845300       0.84940858      -1.36207651      -4.21628354      -0.03112249
H       -1.44226473       0.59028863       1.58850426       0.34802008       0.77119417      -0.17077443
H       -1.62627571       0.59401763      -0.26308346       0.56960275      -0.59479967       1.52085900
H        0.29015222       0.65535754      -1.31592207      -0.00047895       0.23043771      -0.78025916
9
Properties=species:S:1:pos:R:3:forces:R:3 energy=-4209.878835686205 pbc="F F F"
C        0.24884927       0.49660684       0.17993742       0.13942404      -0.01903655       0.54162241
C       -1.04527419      -0.16511378       0.80398660       2.68981526       0.45312112      -1.17184684
O        0.68492509      -0.24646044      -0.91967949       0.67186088      -0.98781817      -1.07691723
H        0.23199209       1.58069806      -0.21778860      -0.64706896      -1.06674399       0.70673281
H        1.02192321       0.46863220       0.98491727       0.07994969       0.38139233       0.11293309
H       -1.39984939       0.43606124       1.60897939      -0.92444777       0.74888131       1.03913307
H       -1.71251075      -0.30174479      -0.03553026      -0.95006789      -0.27858892      -0.26718356
H       -0.65232740      -1.12026336       1.21024162      -0.47218688      -0.14108436      -0.07143574
H        1.12798494      -1.10282678      -0.67693436      -0.58727832       0.90987722       0.18696200
9
Properties=species:S:1:pos:R:3:forces:R:3 energy=-4209.655301509926 pbc="F F F"
C        0.46197756      -0.38103772      -0.21664472      -0.91358033       0.89877181       1.94610006
C        0.21616007       1.10261095      -0.63499888       1.23489256      -0.67007005       1.73965954
O       -0.62360544      -0.68911198       0.71419895      -0.30969428      -2.32544610      -3.83648210
H        0.50850819      -1.17401292      -1.03787887      -0.41316782       0.82635092       0.62629095
H        1.44603976      -0.42210889       0.32657731      -0.12981187      -0.12361248      -0.26029521
H       -0.09806249       1.66569118       0.35325782       1.01607325      -0.60835391      -1.64116504
H        1.16343681       1.44172347      -1.12679127      -0.49266351       0.59259021       0.19627217
H       -0.62996224       1.18959832      -1.28161951      -0.99552181       0.10347560      -1.01881503
H       -0.57297857      -0.36219386       1.57797218       1.00347377       1.30629395       2.24843461
9
Properties=species:S:1:pos:R:3:forces:R:3 energy=-4209.708095806934 pbc="F F F"
C        0.14058587      -0.42425853       0.48970428      -1.49488428       0.07052855      -1.85048736
C       -1.00944035       0.60071835       0.41625303       1.24788614       0.72688645       1.18126202
O        0.76400718      -0.13173690      -0.80506323       0.18527782      -2.23448077       0.46125430
H        0.97784353      -0.30574676       1.17351343      -0.12487983       0.38849670       1.38917804
H       -0.29323761      -1.49646022       0.61399988       0.62699898       0.99259152      -0.39561074
H       -1.53174345       0.85435724       1.35391949      -0.19259986      -0.31503873       0.21980342
H       -0.47439992       1.52924539       0.12235733      -0.26199235       0.14332153      -0.04181499
H       -1.71542187       0.38471699      -0.39006666      -0.21355260      -0.41284710      -0.20927018
H        1.26194999      -0.97921525      -0.89012603       0.22774597       0.64054186      -0.75431452
9
Properties=species:S:1:pos:R:3:forces:R:3 energy=-4209.511803712761 pbc="F F F"
C       -0.31302669       0.02489712       0.31539720      -1.00026488      -0.42754168       3.50411002
C       -0.33289186       1.15654398      -0.72492469      -0.63902784      -0.11170513       0.35028784
O        0.62758029      -1.05073468       0.35314946       1.72130073       1.90474921      -1.32465219
H       -0.15139336       0.54844761       1.34422689      -0.31969732      -0.31675140      -1.04382230
H       -1.34704033      -0.40394361       0.45710788       0.24421039       0.21652084      -0.43459879
H        0.12597618       2.11138270      -0.41478933       0.48878248      -0.16338853       0.27405108
H        0.13330632       0.83649272      -1.63484561       0.49759016      -0.31905001      -1.26551034
H       -1.38787754       1.46522917      -0.95011588       0.28788588      -0.43171546       0.00025752
H        0.36104946      -1.95856727       0.47271050      -1.28077966      -0.35111779      -0.06012284
9
Properties=species:S:1:pos:R:3:forces:R:3 energy=-4209.838550463575 pbc="F F F"
C        0.37917967       0.35413732       0.29782069      -1.27247206      -2.71246318       0.54059001
C       -0.59661882       0.89975617      -0.70421053      -2.25354499       1.32984773       0.91743524
O        0.17392079      -1.12206659       0.42282866      -0.63744872       1.55672692       0.88538782
H        1.36065435       0.51972146      -0.12260779       1.14726108       0.41344442       0.15500894
H        0.24489507       0.72919226       1.35007465       0.28833052       0.19121075      -0.62761898
H       -0.54963846       0.32190710      -1.61210008       0.05817569      -0.64243733      -0.89966208
H       -1.74676168       0.95897400      -0.39574468       2.10955863      -0.27239714      -0.25883246
H       -0.28534330       1.92774350      -0.96908780      -0.14191616       0.27602209      -0.06444095
H        0.80552038      -1.58956853      -0.11967167       0.70205602      -0.13995426      -0.64786755
9
Properties=species:S:1:pos:R:3:forces:R:3 energy=-4209.86793978889 pbc="F F F"
C        0.17870909      -0.36882431      -0.32059944       0.17094953      -2.72276168       0.36687753
C       -1.26403839       0.08422678      -0.34540239      -0.38762304      -0.87601785      -0.26833001
O        1.02135292       0.22482710       0.65940626      -0.69927326       0.07047739      -0.49760214
H        0.14246279      -1.54243188      -0.15802046       0.42497670       1.79396469      -0.03057134
H        0.63901966      -0.23293778      -1.33106606      -0.18244878      -0.06320806      -0.09460010
H       -1.35121080       1.06965839      -0.78138471      -0.21266593       1.37056958       0.43413893
H       -1.74651949      -0.47548468      -1.15601527      -0.25522500      -0.62113872      -0.31360776
H       -1.89719640      -0.13713103       0.55779469       0.61087883       0.55480286      -0.21390937
H        0.93302447       1.13935286       0.33783055       0.53043096       0.49331179       0.61760433
9
Properties=species:S:1:pos:R:3:forces:R:3 energy=-4209.76911895018 pbc="F F F"
C        0.17803694       0.53071460       0.10780957      -0.46514376       0.12079100      -0.16416156