9
Properties=species:S:1:pos:R:3:forces:R:3 energy=-4209.627810082814 pbc="F F F"
C        0.22845243       0.47152864       0.30334020       0.22807831      -3.16738876      -1.74219886
C       -0.84671631       0.61894100      -0.82808082      -1.43197349      -1.08887816       2.54359563
O        0.55436123      -0.98577349       0.43455274      -1.15362631       1.48727356      -1.52014100
H        1.16426160       0.95587938       0.01553508       0.42016195       0.73027774      -0.01080290
H       -0.12502098       0.81757502       1.26578512      -0.38316978       0.56125515       0.69202877
H       -1.59385137       1.31162124      -0.30113624       0.11869123      -0.76519867      -1.20722918
H       -0.52873405       1.04514701      -1.74524106       0.84900239       0.96866417      -1.25274445
H       -1.32022650      -0.40362833      -1.15731993       0.57889806       1.45039391       1.06522118
H        0.97028956      -1.07468197       1.27741715       0.77393764      -0.17639888       1.43227082
9
Properties=species:S:1:pos:R:3:forces:R:3 energy=-4209.621253545472 pbc="F F F"
C       -0.43173549       0.05226338       0.26515809      -0.74413758      -0.19109073      -2.76106305
C        0.11663574       1.23487134      -0.70600241       0.35477149      -1.33035701       0.72970777
O        0.27032081      -1.15947014       0.44783965       1.22704905      -1.41631013      -2.11616981
H       -0.32501275       0.46901543       1.20957137      -0.12287416       1.28981863       2.57137229
H       -1.52831781      -0.18247535       0.12644098       0.29513078       0.41680974      -0.30403487
H        1.17471048       1.36643948      -0.33744431      -0.55121309       0.49058328      -0.23229883
H        0.22910950       0.96863858      -1.77956000      -0.27027068      -0.25790727       0.03542934
H       -0.49918531       2.19123277      -0.67499154       0.50801223      -0.83859616       0.36379174
H        0.41156141      -1.74726614      -0.39960008      -0.69646804       1.83704970       1.71326542
9
Properties=species:S:1:pos:R:3:forces:R:3 energy=-4209.5195412799585 pbc="F F F"
C        0.41931635       0.02551336      -0.41398256      -2.19390079      -0.18417919       1.04535092
C       -0.59463308       1.19047474      -0.08921631      -0.87079697      -3.91767873       1.04364433
O        0.16068489      -1.05292031       0.47634012      -1.32081343       1.25628373       1.26663885
H        0.12192257      -0.36499866      -1.41662746       0.73952147       0.70755458      -0.38126629
H        1.41639301       0.33496697      -0.24342565       2.07917106       0.65034712      -0.56203039
H       -1.50245987       0.44095028      -0.10637916       0.51015411       2.03462819       0.13050730
H       -0.57216000       1.76479412       0.87535248       0.42468344      -0.67541471      -0.26646278
H       -0.57332992       1.86407864      -0.89627364      -0.35496257       1.33645957      -1.63564720
H        0.64712443      -1.81772166       0.22239384       0.98694368      -1.20800051      -0.64073479
9
Properties=species:S:1:pos:R:3:forces:R:3 energy=-4209.68259652863 pbc="F F F"
C       -0.31012223      -0.09192059      -0.46355949       0.25033178      -2.30423589       0.60298441
C       -0.93487908       0.15237313       0.89919634       0.19762220       3.58439493       0.09317704
O        1.11614873       0.00779438      -0.44223878      -0.09782544       0.58308695      -0.04231044
H       -0.67288828      -1.16108504      -0.56442561       0.48557277       0.23942336      -0.90449997
H       -0.60703355       0.44766758      -1.36420069      -0.70517014       0.64363500      -0.07004261
H       -1.98196472      -0.02000553       1.11756062      -1.03038906      -0.34843392      -0.71884347
H       -0.43041147      -0.46993413       1.57081914       1.27914886      -1.58333311       1.51506893
H       -0.75903575       1.19149172       1.34342888       0.03059423      -0.58755846      -0.62192758
H        1.56885090      -0.83371543      -0.27445087      -0.40988519      -0.22697891       0.14639379
9
Properties=species:S:1:pos:R:3:forces:R:3 energy=-4209.80535865126 pbc="F F F"
C       -0.35344838      -0.34070143      -0.24043539      -0.02339565      -0.15693213       1.04495790
C       -0.70124961       0.63128351       0.84227028      -1.83550225       0.11724175       1.73842238
O        0.97896143      -0.32750066      -0.56690476       1.51892913      -0.51965305      -0.28273724
H       -0.50397629      -1.30411738       0.22723584      -0.82084830      -1.16438360      -0.26936648
H       -0.95255104      -0.13693158      -1.12052823      -1.00940715      -0.24830662      -0.79733252
H       -0.38163784       1.68952449       0.66779719      -0.02471653      -0.25956024      -0.00298613
H       -1.85629322       0.61335614       0.89011818       1.15356913       0.35162157       0.18821330
H       -0.35065284       0.26668936       1.87634137      -0.11412038       0.60051574      -1.10265876
H        1.07258168       0.60591525      -0.71379440       1.15549205       1.27945662      -0.51651245
9
Properties=species:S:1:pos:R:3:forces:R:3 energy=-4209.742825731715 pbc="F F F"
C        0.28040428      -0.03151162       0.47391616       1.85960213      -1.13567219       1.62189082
C       -1.17794877       0.38895559       0.41485345      -0.13543899      -0.16975057       0.87325314
O        0.77958261      -0.32684030      -0.81654373      -2.40226702       0.67478520      -0.66456794
H        0.94976820       0.73392354       1.13053919      -1.21470708      -1.10815434      -1.34280758
H        0.32314884      -1.01089747       1.06700666       0.04588566       0.67743832      -0.04386817
H       -1.70248473       0.29469009       1.43066964       0.59116433      -0.01164535      -1.03837197
H       -1.19542876       1.41923087       0.12655072      -0.28018712       1.48831074      -0.26770066
H       -1.75862840      -0.11422099      -0.37834139       0.09873747      -0.52735042       0.11121313
H        1.70325357      -0.39550374      -1.00578316       1.43721057       0.11203855       0.75095918
9
Properties=species:S:1:pos:R:3:forces:R:3 energy=-4209.80152566288 pbc="F F F"
C       -0.07204784      -0.12373257       0.49337547      -0.64515560       1.82835011       1.98850013
C       -1.24743555      -0.21706010      -0.52472187       0.51751533       1.10479653       0.88117857
O        1.19552846       0.28436431      -0.03373889      -1.51692126      -0.67819865      -1.59361984
H       -0.35304697       0.76642245       1.28567042      -0.00078820      -1.81400541      -1.25219866
H        0.04837654      -1.05869880       1.13720863      -0.29858619       0.38964624      -0.58109476
H       -1.28290000       0.76156045      -1.06465297       0.27459919      -0.39760530      -0.29437416
H       -1.15091190      -1.06925185      -1.22415317      -0.17117038       0.04903176      -0.00457857
H       -2.23593299      -0.17685631       0.02389819       0.65996438      -0.64323216      -0.20706777
H        1.71944404       0.32242019       0.75110496       1.18054278       0.16121692       1.06325506
9
Properties=species:S:1:pos:R:3:forces:R:3 energy=-4209.641771860952 pbc="F F F"
C        0.19230723       0.05766561      -0.55403247      -1.45628019      -0.19325452      -1.35893873
C       -1.22127613      -0.35986657      -0.10795665       0.46398933       2.08836672       1.69905323
O        0.96606444       0.28827222       0.55937110       1.58570439      -1.16213213       1.39804552
H        0.56878964      -0.55581790      -1.46945595       0.16900675       0.01375124       1.38561480
H        0.08332279       1.05433461      -1.00845334      -0.02381171       0.36633209      -0.30514158
H       -1.61621330       0.52908526       0.46646005       0.21929938       0.03956234      -0.36864151
H       -1.96300334      -0.44223519      -0.88366255      -0.63141249      -1.05896795      -0.73983124
H       -1.20160318      -1.01386269       0.78955073      -0.13245090      -1.09885502      -0.76986275
H        1.05430647      -0.54780196       1.11477857      -0.19404446       1.00519718      -0.94029785
9
Properties=species:S:1:pos:R:3:forces:R:3 energy=-4209.776243644064 pbc="F F F"
C        0.12224871      -0.07554430       0.59728502      -1.02305272      -1.38600031      -2.61394786
C       -1.29889027       0.19215446       0.00695678       2.07218183       2.52930770       1.49467674
O        1.04240855      -0.14286108      -0.56719330       0.18530744       0.84052819       2.04233975
H        0.46367830       0.66937891       1.31942401      -0.09221802       0.37803210       0.42605322
H        0.03832779      -1.07191134       1.04262400       0.52185232      -0.52535098       0.66363942
H       -2.13543276       0.09804240       0.67450979      -0.65827887      -0.37189313       1.09732213
H       -1.22952876       1.27434187      -0.20656957      -0.50247988       0.16286418      -0.60968358
H       -1.52393121      -0.33740646      -0.87512664      -0.00210085      -1.14014324      -1.65845366
H        1.86032793       0.24420392      -0.15179257      -0.50121120      -0.48734457      -0.84194610
9
Properties=species:S:1:pos:R:3:forces:R:3 energy=-4209.758450854506 pbc="F F F"
C       -0.30674852      -0.47077670      -0.03573678      -0.70055799       2.19954966      -0.93869364
C       -0.88604264       0.93294950       0.31437797      -0.49543588      -1.81852515       0.87390857
O        1.10237485      -0.46268187      -0.30817101      -0.89717129      -0.30359876      -0.17414967
H       -0.63708462      -1.04899353       0.79424464       0.18997230      -1.54321963       1.48691185
H       -1.05216128      -0.80564333      -0.85470677       1.87000990      -0.07906436       0.05729174
H       -1.98318754       0.70539497       0.53537244       0.79283988       0.72423163      -0.12674254
H       -0.39862111       1.32463065       1.23754893      -0.15415333       0.19641697      -0.19244107
H       -0.77509877       1.59151960      -0.52838801       0.01427096       0.94864519      -0.67692127
H        1.56016771       0.06861899       0.38732734      -0.61977454      -0.32443550      -0.30916402
9
Properties=species:S:1:pos:R:3:forces:R:3 energy=-4209.595161601004 pbc="F F F"
C       -0.29247988      -0.47555006      -0.20647188       0.66019522       1.91132892       3.78849678
C       -0.89111504       0.74122897       0.71832488      -0.30634141      -1.72025290      -0.79554021
O        1.10767947      -0.30363622      -0.42999150      -0.96491452      -1.55709840       1.26217006
H       -0.55686376      -1.39241714       0.30077540       0.64577081      -1.07631467       0.78137615
H       -0.82613036      -0.60554591      -1.08883634      -1.48952255       0.38368498      -2.59449623
H       -2.00902117       0.81279740       0.69807329       0.18218216      -0.64779299       0.31066596
H       -0.51060223       0.87356542       1.77604696      -0.03478163      -0.44927028      -0.88284989
H       -0.67222501       1.59504452       0.12710983       0.80825190       1.79499205      -0.57369389
H        1.09507145       0.36893139      -1.08704139       0.49916007       1.36072318      -1.29612868
9
Properties=species:S:1:pos:R:3:forces:R:3 energy=-4209.672570229224 pbc="F F F"
C       -0.02553129       0.23480824       0.45561683       3.14521001       0.45036747      -1.26092190
C       -0.23422615       0.96868763      -0.86343155       1.49917252       0.70324613       0.01889910
O        0.22953599      -1.12368071       0.42292452       0.11184300      -0.58801859       1.99331447
H        0.91291653       0.69375378       0.91986841      -0.83158749       0.16997096      -0.08380352
H       -0.83007228       0.46683863       1.05966999      -2.48017315       0.46793351       2.10163346
H        0.80597139       1.08154512      -1.37370511      -1.65026248      -0.31350594       0.03000982
H       -1.08930559       0.66149356      -1.52088676       0.53419012      -0.23069374       0.16611832
H       -0.48294639       1.97703409      -0.47923253      -0.06351206       0.36480434      -0.46986652
H        0.13423054      -1.38653132      -0.45939413      -0.26488047      -1.02410415      -2.49538328
9
Properties=species:S:1:pos:R:3:forces:R:3 energy=-4209.470443750998 pbc="F F F"
C        0.27712771      -0.14091052      -0.47960210       3.27299991      -1.39722544       0.55387799
C       -1.13850519       0.27276910      -0.53283555      -2.35295994       0.48241782      -0.29633745
O        0.74941495      -0.13413185       0.91386214      -0.27909697       0.39002383       0.01811378
H        0.34629665      -1.27712157      -0.71263900       0.00195373       1.37378197      -0.47823895
H        1.07443764       0.45198613      -1.06928679      -1.19831275      -0.70582130       0.04340172
H       -1.46842510       1.25176878      -1.00584344       0.94241382       0.08839566       1.10651917
H       -1.77613184      -0.33123337      -1.25220143       0.51708092      -0.50275082       0.92237392
H       -1.41922918       0.13962298       0.57823307      -0.50111704       0.35442783      -1.41982148
H        1.61057365       0.32136247       1.01996419      -0.40296168      -0.08324960      -0.44988868
9
Properties=species:S:1:pos:R:3:forces:R:3 energy=-4209.674100888327 pbc="F F F"
C       -0.14618258      -0.14483888      -0.56285316       4.56115432       0.25955751       0.23238671
C       -0.13494183       1.26205617       0.01432922      -1.42620692      -1.04200931      -0.60712631
O        0.19073528      -1.03254851       0.49285983      -0.15880240      -0.50228890      -0.05286271
H       -0.94364634      -0.50793168      -1.09853875      -3.31201908      -0.89241624      -0.89503764
H        0.65232664      -0.25866522      -1.40189354      -0.45560826       0.42948842       0.68926499
H       -0.66324505       1.06433729       0.99495032       0.55406167       0.97693916      -0.38215975
H        0.92546796       1.52729598       0.04361976       0.24897444       0.60362518       0.64954864
H       -0.69141510       1.94637185      -0.65649171       0.05300546       0.34174021       0.27881384
H        1.04181472      -0.69574609       0.83126818      -0.06455922      -0.17463608       0.08717218
9
Properties=species:S:1:pos:R:3:forces:R:3 energy=-4209.557705102145 pbc="F F F"
C       -0.08312478       0.22234261       0.49392608      -1.48502698       1.08720386       0.57513211
C       -0.11930808       1.01801225      -0.86364428       0.58271147       0.40517097       2.45955177
O        0.18570773      -1.12615521       0.27393670      -0.34017682      -0.41998207      -0.60873510
H        0.57313831       0.58387017       1.27959092       1.03943178       0.78215124       0.27574168
H       -1.13724266       0.44735640       1.07590363       1.39864479      -0.69157934      -1.40025245
H        0.86424362       1.23620126      -1.42406618      -1.21869096      -0.37500828       0.79497672
H       -0.79834228       0.35426597      -1.34219763      -0.76060951      -0.66771158      -1.76473515
H       -0.73113953       1.90539330      -0.56224132       0.55806564       0.21141931      -0.71481671
H        0.69275407      -1.43288954       1.03030714       0.22565052      -0.33166411       0.38313718
9
Properties=species:S:1:pos:R:3:forces:R:3 energy=-4209.740843515469 pbc="F F F"
C        0.18465859      -0.39304240      -0.42186670       0.75311510      -1.45461453       2.39556801
C       -1.25134774       0.18788437      -0.33153894       2.33984901      -1.62688071      -1.23981488
O        0.97577145       0.13564906       0.68591231      -0.25131265      -0.07628155      -0.49532779
H        0.35628296      -1.55032005      -0.21595510      -1.14901082       1.67089620      -0.42628750
H        0.74252505      -0.27044276      -1.35105654      -0.09983111       0.53484951      -0.94922693
H       -1.28154702       1.18463862      -0.66933978       0.22851226       2.17565064      -0.32765555
H       -1.96617975      -0.28330521      -0.95451599      -1.10148567      -1.21381152      -1.15296533
H       -1.58655870       0.10064316       0.65303207      -0.68497191      -0.04673299       2.31783018
H        0.95647139       1.10875978       0.62774519      -0.03486416       0.03692490      -0.12212021
9
Properties=species:S:1:pos:R:3:forces:R:3 energy=-4209.895227423021 pbc="F F F"
C       -0.13014286       0.31184281      -0.43857851       1.47364388       2.47556496       1.30285207
C       -1.16714902      -0.16846365       0.52043008      -1.73007976      -1.21708654       0.99150338
O        1.19151359      -0.08632611      -0.07178267      -0.26254267       0.52203682      -0.15751865
H       -0.38398246       0.23866204      -1.47486795      -0.33839664      -1.20562374      -1.59363393
H       -0.05093616       1.45542392      -0.44793893      -0.25774864      -0.67546711       0.63521366
H       -0.92541187       0.01544475       1.60572764       0.07038488       0.50259311      -0.62384331
H       -2.22941113       0.24434481       0.31193213       1.26318832      -0.52029840       0.17556347
H       -1.22258303      -1.31326012       0.54993797      -0.15497809       0.84511792      -0.49329014
H        1.35664681      -0.98034807      -0.38070865      -0.06347129      -0.72683709      -0.23684654
9
Properties=species:S:1:pos:R:3:forces:R:3 energy=-4209.637217792501 pbc="F F F"
C       -0.34321504      -0.44908637       0.01597653       1.17584655      -1.87271306      -1.29182301
C       -0.89115545       0.91022508       0.28920831      -1.36561064      -1.97533608       1.26770678
O        1.11473209      -0.39274973      -0.33812555      -1.15344402      -0.95554197       2.98242456
H       -0.45442525      -1.21700584       0.87144907      -0.17626214       0.89046159      -0.76428053
H       -0.87054705      -0.90200125      -0.90406269       0.40392440       0.35924742       0.96006475
H       -1.93352428       0.69934430       0.67857123       0.26757807       0.84676918      -0.72579085
H       -0.36657037       1.39137732       1.08377769       0.82881455       0.68002768       1.11928722
H       -0.75016792       1.46246253      -0.60266835      -0.46179937       1.25618747      -1.36843850
H        1.38856125      -0.69638583       0.60351459       0.48095260       0.77089778      -2.17915047
9
Properties=species:S:1:pos:R:3:forces:R:3 energy=-4209.711120631898 pbc="F F F"
C       -0.10059230      -0.17851116       0.59511262       0.56197403       0.78850659      -1.20826472
C       -1.05227690       0.64338287      -0.27248393       2.22461324      -0.22232588      -2.23752151
O        1.06594654      -0.40077489      -0.22151940       0.70990282      -0.02649105       1.36300467
H        0.27507819       0.35263307       1.52788679      -0.39055754      -0.53446286      -0.66948086
H       -0.68667164      -1.08270931       0.80235506       0.30295856      -0.71650187       0.79955586
H       -1.75808601       1.26070124       0.20994457      -1.32649737       1.13567985       1.06373133
H       -0.31274296       1.30943270      -0.93516191      -1.71193240      -1.03424725       0.98111993
H       -1.61478092      -0.11323626      -0.90187981       0.33236915       0.82638553      -0.01204284
H        0.91374398      -0.90612678      -1.03135770      -0.70283038      -0.21654295      -0.08010180
9
Properties=species:S:1:pos:R:3:forces:R:3 energy=-4209.6123176637475 pbc="F F F"
C       -0.18536709      -0.01122534      -0.53847767       0.20351245      -0.32096194       2.51666163
C        0.16213810       1.37005379       0.19502277      -0.21135704      -4.26215269       0.35157170
O        0.02090168      -1.18104542       0.35186381      -0.47828909       1.79436269      -0.27037029
H       -1.18491303       0.04960821      -1.00491487      -0.33545026      -0.25265610       0.00269518
H        0.57254285      -0.06905802      -1.28085773       0.93734010      -0.18197488      -1.68461880
H        1.18124867       1.10263487       0.57572611      -0.24353542       0.91317893       0.01521394
H        0.13702866       1.98047440      -0.68612304       0.03453491       1.66576582      -0.21639733
H       -0.55728432       1.47726207       1.03926235       0.20919160       0.69529340      -0.38258928
H       -0.20459339      -1.98717315      -0.13571752      -0.11594730      -0.05085529      -0.33216681
9
Properties=species:S:1:pos:R:3:forces:R:3 energy=-4209.540678880814 pbc="F F F"
C       -0.06327998      -0.51545093       0.23810405      -0.33889677       0.64738876      -3.98563176
C       -1.18991302       0.57018455       0.34798751      -0.94945216      -4.05008777      -1.79001208
O        1.17116573      -0.09593930      -0.53147525      -2.30642744       1.71501783       1.11650544
H        0.28281696      -0.97959670       1.10952731       0.49990801      -0.47103596       2.50146996
H       -0.52418809      -1.36120241      -0.34243685       0.27393795       0.15693089       0.03713424
H       -1.95925922       0.15371170       1.05083587       0.10074581       0.21138599      -0.32639602
H       -0.78185433       1.38034935       0.81212490       1.15408504       3.39359381       1.36054037
H       -1.70582473       0.76595773      -0.67254085       0.88700155      -0.01663422       1.34999381
H        1.03013447       0.90994914      -0.50512706       0.67909812      -1.58655933      -0.26360391
9
Properties=species:S:1:pos:R:3:forces:R:3 energy=-4209.631888455555 pbc="F F F"
C       -0.06651111      -0.17686278      -0.48557230      -0.84825652       0.52918058      -1.02205673
C       -0.33607155       1.27980843      -0.07198419       2.33431882      -0.63923234      -1.09472428
O        0.33548586      -1.00409947       0.55109666      -2.94012564       0.60139275       1.73074043
H       -1.10424154      -0.41585703      -1.01585023       1.47554902      -0.59444336       0.96225816
H        0.70904169      -0.28724277      -1.26546771      -0.08421186       0.53300664      -0.60763312
H       -1.01699432       1.27736299       0.73334480      -1.14609950       0.27800292       1.53909481
H        0.53464808       1.96937795       0.06217612      -0.01457594      -0.54356164       0.52034915
H       -0.79027748       1.64973886      -0.95438558      -1.21396136       1.06833021      -1.26563668
H        1.13875448      -1.39923786       0.33631509       2.43736304      -1.23267575      -0.76239179
9
Properties=species:S:1:pos:R:3:forces:R:3 energy=-4209.722444137804 pbc="F F F"
C       -0.23867610       0.35401822       0.48144944      -0.45951453      -1.18234579      -2.19188978
C        0.35220749       0.88121405      -0.86618868       1.50403262       0.94442324       2.97491529
O       -0.14202208      -1.12482420       0.41467605      -0.83079312       1.54720459       0.46388037
H        0.33261177       0.64559806       1.35187958       0.28512981       0.63668330       0.77576878
H       -1.30976163       0.79129488       0.47593192       0.90040554      -0.91274683       0.60503667
H        0.61224271       1.98827916      -0.72505813      -0.48743250      -0.94769656      -0.76611362
H        1.30214233       0.33321929      -1.05455896       0.10187467       0.19781185      -0.03931577
H       -0.34530832       0.60731819      -1.61245964      -1.09428874       0.14906702      -1.57977645
H        0.30860244      -1.23159860      -0.43345325       0.08058630      -0.43240086      -0.24250539
9
Properties=species:S:1:pos:R:3:forces:R:3 energy=-4209.74575934659 pbc="F F F"
C        0.35755694       0.35026688       0.28720521       1.01314271      -2.44693037      -2.65525150
C       -0.71746600       0.88719411      -0.66016439       1.46266491       1.91977057      -0.32460293
O        0.34513531      -1.12676405       0.41729398      -1.13953620       1.05579480      -1.63524035
H        1.35563889       0.63301962      -0.19822317      -0.56963792      -0.02557266       0.64302230
H        0.31435288       0.70903308       1.27492672      -0.12572222       1.02579619       1.86596581
H       -0.76870720       0.25971535      -1.58707888       0.19309125       0.32315926       0.11638305
H       -1.73549823       0.93661675      -0.24804808      -0.20127697       0.16624466       0.21312503
H       -0.28433838       1.98083670      -0.95000900      -1.42321164      -2.02243669       0.30264329
H       -0.07218866      -1.38087608      -0.47121364       0.79048609       0.00417424       1.47395524
9
Properties=species:S:1:pos:R:3:forces:R:3 energy=-4209.626566510009 pbc="F F F"
C       -0.30282287      -0.12456841      -0.34170454      -1.08078906      -3.53442574      -0.76783045
C        0.15465395       1.28325076      -0.41042771      -1.88934429       0.48920090       1.67922673
O        0.11300379      -1.03602549       0.70872337       0.40521237       0.60719316      -0.42146405
H       -1.46124103      -0.25062373      -0.25795460       1.46286520       0.59936127      -0.18437938
H       -0.03463024      -0.53923567      -1.39986590      -0.48121475      -0.02088132       1.13187601
H       -0.79194261       1.66770531      -0.86641371       0.95647662       0.90496559      -0.61614780
H        0.13472545       1.73287004       0.61463711       0.43836783       0.03237888      -0.28984377
H        1.09594532       1.38810995      -0.93600499       0.48398630       0.54624273      -0.38934377
H        1.02799715      -1.36207361       0.55824983      -0.29556016       0.37596452      -0.14209357
9
Properties=species:S:1:pos:R:3:forces:R:3 energy=-4209.601551321664 pbc="F F F"
C       -0.38859081      -0.43508439      -0.17424870       1.30107060       0.03510281       0.50703449
C       -0.75102599       0.88878903       0.56489999      -3.17385184      -2.18257909      -1.72000675
O        1.03020920      -0.40452998      -0.32379173       0.51215762      -0.55847892       1.03199003
H       -0.66295906      -1.33519694       0.47249937       0.43475522       0.69630606      -0.03294262
H       -0.89530638      -0.72555649      -1.09848297      -0.50983591       0.59441647      -0.76498943
H       -1.53776334       0.55147500       1.24950409      -0.31376367       0.40519293       0.71549142
H        0.10108483       1.17977122       1.07997476       2.05373853       0.89724118       1.33093453
H       -1.22530073       1.68935096      -0.02951395       0.38716559       0.13037551      -0.32256188
H        1.44614059      -0.34647533      -1.18935136      -0.69143618      -0.01757694      -0.74494979
9
Properties=species:S:1:pos:R:3:forces:R:3 energy=-4209.583462297637 pbc="F F F"
C       -0.42828911       0.01955633      -0.33017041       0.91721268       2.27631895      -0.48799331
C       -0.52875510       0.28033640       1.15558527      -2.18659300       3.02125583      -1.57360000
O        0.88004613      -0.32061974      -0.69985623       1.57529970       0.72263868      -1.03498465
H       -1.01050979      -0.73626760      -0.72974218      -2.36052762      -2.55739613      -0.17881386
H       -0.73979425       0.84045361      -1.03809559      -0.19858565       0.47279320       0.92508016
H       -1.59956000       0.63968016       1.38703814       1.10457356      -0.19673327      -0.11523536
H       -0.44664496      -0.63403703       1.63031886       0.76368989      -2.35143636       1.74180075
H        0.19672696       1.07758456       1.45601729      -0.18357806      -0.54066961       0.10609905
H        1.03372060       0.32685286      -1.43217748       0.56850854      -0.84677119       0.61764721
9
Properties=species:S:1:pos:R:3:forces:R:3 energy=-4209.706698496953 pbc="F F F"
C        0.27951553       0.45967905      -0.14381627       0.12086186      -1.03550247      -0.03897237
C       -1.03537234       0.08135642      -0.88283818       1.00116337      -1.25297770       0.74787396
O        0.64062973      -0.49970807       0.95562188       1.30949842       1.27693879      -1.54065305
H        1.13674082       0.45700492      -0.94586294      -1.12084083       0.54249972       1.27225414
H       -0.02278354       1.45273258       0.27560048       1.10146114       0.13194573       0.11809720
H       -1.26681507       0.86903202      -1.60019665      -0.25532182       0.65747669      -0.18266687
H       -0.78499261      -0.80382786      -1.53195918      -0.80207441      -0.05012083       0.59985152
H       -1.88857515      -0.04197190      -0.13007709       0.74912855      -0.20018575      -0.94225281
H        1.66334139      -0.44944634       0.99726312      -2.10387628      -0.07007419      -0.03353171
9
Properties=species:S:1:pos:R:3:forces:R:3 energy=-4209.685691547814 pbc="F F F"
C        0.38628585      -0.28459146      -0.25933832       0.60541781       0.86229932       1.41252860
C        0.46899197       1.30122612      -0.00781876      -1.42768901      -1.17863435      -1.00732199
O       -0.81017142      -0.92466841       0.20679690       1.61879274      -0.30870096       1.64432730
H        0.46494777      -0.28474468      -1.33798939      -0.13849546      -0.76570615      -1.07642605
H        1.28689365      -0.90019578       0.17211383      -0.81467719       1.25847487      -0.66131869
H        1.45744572       1.57663380      -0.43093548      -0.08471035       0.50929536       0.34086902
H       -0.38442149       1.81091831      -0.62307180       1.26081026      -0.75666651       0.63410474
H        0.26517228       1.62065368       1.02994997       0.50196833      -0.05571478       0.22719257
H       -0.42244429      -1.26147225       1.09083703      -1.52141714       0.43535316      -1.51395544
9
Properties=species:S:1:pos:R:3:forces:R:3 energy=-4209.856015867805 pbc="F F F"
C        0.03373054       0.30329434       0.48442687       0.75381320      -0.19320942      -1.16405429