2
Lattice="-2.715472844666197 0.0 2.715472844666197 0.0 2.715472844666197 2.715472844666197 -2.715472844666197 2.715472844666197 0.0" Properties=species:S:1:pos:R:3:forces:R:3 energy=-215.55059884334983 free_energy=-215.55059884334983 stress="0.01649470155705815 -0.0 -0.0 -0.0 0.01649470155705815 0.0 -0.0 0.0 0.01649470155705815" pbc="T T T"
Si       0.00000000       0.00000000       0.00000000       0.00000000       0.00000000       0.00000000
Si      -4.07320927       4.07320927       4.07320927       0.00000000       0.00000000       0.00000000
