(written by ASE)

1000 atoms
1 atom types

0.0   21.5  xlo xhi
0.0   21.5  ylo yhi
0.0   21.5  zlo zhi

Atoms # atomic

     1   1        0.0             0.0          0.0 
     2   1        0.0             0.0          1.0
     3   1        0.0             0.0          2.0
     4   1        0.0             0.0          3.0
     5   1        0.0             0.0          4.0
     6   1        0.0             0.0          5.0
     7   1        0.0             0.0          6.0
     8   1        0.0             0.0          7.0
     9   1        0.0             0.0          8.0
    10   1        0.0             0.0          9.0
    11   1        0.0             1.0          0.0
    12   1        0.0             1.0          1.0
    13   1        0.0             1.0          2.0
    14   1        0.0             1.0          3.0
    15   1        0.0             1.0          4.0
    16   1        0.0             1.0          5.0
    17   1        0.0             1.0          6.0
    18   1        0.0             1.0          7.0
    19   1        0.0             1.0          8.0
    20   1        0.0             1.0          9.0
    21   1        0.0             2.0          0.0
    22   1        0.0             2.0          1.0
    23   1        0.0             2.0          2.0
    24   1        0.0             2.0          3.0
    25   1        0.0             2.0          4.0
    26   1        0.0             2.0          5.0
    27   1        0.0             2.0          6.0
    28   1        0.0             2.0          7.0
    29   1        0.0             2.0          8.0
    30   1        0.0             2.0          9.0
    31   1        0.0             3.0          0.0
    32   1        0.0             3.0          1.0
    33   1        0.0             3.0          2.0
    34   1        0.0             3.0          3.0
    35   1        0.0             3.0          4.0
    36   1        0.0             3.0          5.0
    37   1        0.0             3.0          6.0
    38   1        0.0             3.0          7.0
    39   1        0.0             3.0          8.0
    40   1        0.0             3.0          9.0
    41   1        0.0             4.0          0.0
    42   1        0.0             4.0          1.0
    43   1        0.0             4.0          2.0
    44   1        0.0             4.0          3.0
    45   1        0.0             4.0          4.0
    46   1        0.0             4.0          5.0
    47   1        0.0             4.0          6.0
    48   1        0.0             4.0          7.0
    49   1        0.0             4.0          8.0
    50   1        0.0             4.0          9.0
    51   1        0.0             5.0          0.0
    52   1        0.0             5.0          1.0
    53   1        0.0             5.0          2.0
    54   1        0.0             5.0          3.0
    55   1        0.0             5.0          4.0
    56   1        0.0             5.0          5.0
    57   1        0.0             5.0          6.0
    58   1        0.0             5.0          7.0
    59   1        0.0             5.0          8.0
    60   1        0.0             5.0          9.0
    61   1        0.0             6.0          0.0
    62   1        0.0             6.0          1.0
    63   1        0.0             6.0          2.0
    64   1        0.0             6.0          3.0
    65   1        0.0             6.0          4.0
    66   1        0.0             6.0          5.0
    67   1        0.0             6.0          6.0
    68   1        0.0             6.0          7.0
    69   1        0.0             6.0          8.0
    70   1        0.0             6.0          9.0
    71   1        0.0             7.0          0.0
    72   1        0.0             7.0          1.0
    73   1        0.0             7.0          2.0
    74   1        0.0             7.0          3.0
    75   1        0.0             7.0          4.0
    76   1        0.0             7.0          5.0
    77   1        0.0             7.0          6.0
    78   1        0.0             7.0          7.0
    79   1        0.0             7.0          8.0
    80   1        0.0             7.0          9.0
    81   1        0.0             8.0          0.0
    82   1        0.0             8.0          1.0
    83   1        0.0             8.0          2.0
    84   1        0.0             8.0          3.0
    85   1        0.0             8.0          4.0
    86   1        0.0             8.0          5.0
    87   1        0.0             8.0          6.0
    88   1        0.0             8.0          7.0
    89   1        0.0             8.0          8.0
    90   1        0.0             8.0          9.0
    91   1        0.0             9.0          0.0
    92   1        0.0             9.0          1.0
    93   1        0.0             9.0          2.0
    94   1        0.0             9.0          3.0
    95   1        0.0             9.0          4.0
    96   1        0.0             9.0          5.0
    97   1        0.0             9.0          6.0
    98   1        0.0             9.0          7.0
    99   1        0.0             9.0          8.0
   100   1        0.0             9.0          9.0
   101   1        1.0             0.0          0.0
   102   1        1.0             0.0          1.0
   103   1        1.0             0.0          2.0
   104   1        1.0             0.0          3.0
   105   1        1.0             0.0          4.0
   106   1        1.0             0.0          5.0
   107   1        1.0             0.0          6.0
   108   1        1.0             0.0          7.0
   109   1        1.0             0.0          8.0
   110   1        1.0             0.0          9.0
   111   1        1.0             1.0          0.0
   112   1        1.0             1.0          1.0
   113   1        1.0             1.0          2.0
   114   1        1.0             1.0          3.0
   115   1        1.0             1.0          4.0
   116   1        1.0             1.0          5.0
   117   1        1.0             1.0          6.0
   118   1        1.0             1.0          7.0
   119   1        1.0             1.0          8.0
   120   1        1.0             1.0          9.0
   121   1        1.0             2.0          0.0
   122   1        1.0             2.0          1.0
   123   1        1.0             2.0          2.0
   124   1        1.0             2.0          3.0
   125   1        1.0             2.0          4.0
   126   1        1.0             2.0          5.0
   127   1        1.0             2.0          6.0
   128   1        1.0             2.0          7.0
   129   1        1.0             2.0          8.0
   130   1        1.0             2.0          9.0
   131   1        1.0             3.0          0.0
   132   1        1.0             3.0          1.0
   133   1        1.0             3.0          2.0
   134   1        1.0             3.0          3.0
   135   1        1.0             3.0          4.0
   136   1        1.0             3.0          5.0
   137   1        1.0             3.0          6.0
   138   1        1.0             3.0          7.0
   139   1        1.0             3.0          8.0
   140   1        1.0             3.0          9.0
   141   1        1.0             4.0          0.0
   142   1        1.0             4.0          1.0
   143   1        1.0             4.0          2.0
   144   1        1.0             4.0          3.0
   145   1        1.0             4.0          4.0
   146   1        1.0             4.0          5.0
   147   1        1.0             4.0          6.0
   148   1        1.0             4.0          7.0
   149   1        1.0             4.0          8.0
   150   1        1.0             4.0          9.0
   151   1        1.0             5.0          0.0
   152   1        1.0             5.0          1.0
   153   1        1.0             5.0          2.0
   154   1        1.0             5.0          3.0
   155   1        1.0             5.0          4.0
   156   1        1.0             5.0          5.0
   157   1        1.0             5.0          6.0
   158   1        1.0             5.0          7.0
   159   1        1.0             5.0          8.0
   160   1        1.0             5.0          9.0
   161   1        1.0             6.0          0.0
   162   1        1.0             6.0          1.0
   163   1        1.0             6.0          2.0
   164   1        1.0             6.0          3.0
   165   1        1.0             6.0          4.0
   166   1        1.0             6.0          5.0
   167   1        1.0             6.0          6.0
   168   1        1.0             6.0          7.0
   169   1        1.0             6.0          8.0
   170   1        1.0             6.0          9.0
   171   1        1.0             7.0          0.0
   172   1        1.0             7.0          1.0
   173   1        1.0             7.0          2.0
   174   1        1.0             7.0          3.0
   175   1        1.0             7.0          4.0
   176   1        1.0             7.0          5.0
   177   1        1.0             7.0          6.0
   178   1        1.0             7.0          7.0
   179   1        1.0             7.0          8.0
   180   1        1.0             7.0          9.0
   181   1        1.0             8.0          0.0
   182   1        1.0             8.0          1.0
   183   1        1.0             8.0          2.0
   184   1        1.0             8.0          3.0
   185   1        1.0             8.0          4.0
   186   1        1.0             8.0          5.0
   187   1        1.0             8.0          6.0
   188   1        1.0             8.0          7.0
   189   1        1.0             8.0          8.0
   190   1        1.0             8.0          9.0
   191   1        1.0             9.0          0.0
   192   1        1.0             9.0          1.0
   193   1        1.0             9.0          2.0
   194   1        1.0             9.0          3.0
   195   1        1.0             9.0          4.0
   196   1        1.0             9.0          5.0
   197   1        1.0             9.0          6.0
   198   1        1.0             9.0          7.0
   199   1        1.0             9.0          8.0
   200   1        1.0             9.0          9.0
   201   1        2.0             0.0          0.0
   202   1        2.0             0.0          1.0
   203   1        2.0             0.0          2.0
   204   1        2.0             0.0          3.0
   205   1        2.0             0.0          4.0
   206   1        2.0             0.0          5.0
   207   1        2.0             0.0          6.0
   208   1        2.0             0.0          7.0
   209   1        2.0             0.0          8.0
   210   1        2.0             0.0          9.0
   211   1        2.0             1.0          0.0
   212   1        2.0             1.0          1.0
   213   1        2.0             1.0          2.0
   214   1        2.0             1.0          3.0
   215   1        2.0             1.0          4.0
   216   1        2.0             1.0          5.0
   217   1        2.0             1.0          6.0
   218   1        2.0             1.0          7.0
   219   1        2.0             1.0          8.0
   220   1        2.0             1.0          9.0
   221   1        2.0             2.0          0.0
   222   1        2.0             2.0          1.0
   223   1        2.0             2.0          2.0
   224   1        2.0             2.0          3.0
   225   1        2.0             2.0          4.0
   226   1        2.0             2.0          5.0
   227   1        2.0             2.0          6.0
   228   1        2.0             2.0          7.0
   229   1        2.0             2.0          8.0
   230   1        2.0             2.0          9.0
   231   1        2.0             3.0          0.0
   232   1        2.0             3.0          1.0
   233   1        2.0             3.0          2.0
   234   1        2.0             3.0          3.0
   235   1        2.0             3.0          4.0
   236   1        2.0             3.0          5.0
   237   1        2.0             3.0          6.0
   238   1        2.0             3.0          7.0
   239   1        2.0             3.0          8.0
   240   1        2.0             3.0          9.0
   241   1        2.0             4.0          0.0
   242   1        2.0             4.0          1.0
   243   1        2.0             4.0          2.0
   244   1        2.0             4.0          3.0
   245   1        2.0             4.0          4.0
   246   1        2.0             4.0          5.0
   247   1        2.0             4.0          6.0
   248   1        2.0             4.0          7.0
   249   1        2.0             4.0          8.0
   250   1        2.0             4.0          9.0
   251   1        2.0             5.0          0.0
   252   1        2.0             5.0          1.0
   253   1        2.0             5.0          2.0
   254   1        2.0             5.0          3.0
   255   1        2.0             5.0          4.0
   256   1        2.0             5.0          5.0
   257   1        2.0             5.0          6.0
   258   1        2.0             5.0          7.0
   259   1        2.0             5.0          8.0
   260   1        2.0             5.0          9.0
   261   1        2.0             6.0          0.0
   262   1        2.0             6.0          1.0
   263   1        2.0             6.0          2.0
   264   1        2.0             6.0          3.0
   265   1        2.0             6.0          4.0
   266   1        2.0             6.0          5.0
   267   1        2.0             6.0          6.0
   268   1        2.0             6.0          7.0
   269   1        2.0             6.0          8.0
   270   1        2.0             6.0          9.0
   271   1        2.0             7.0          0.0
   272   1        2.0             7.0          1.0
   273   1        2.0             7.0          2.0
   274   1        2.0             7.0          3.0
   275   1        2.0             7.0          4.0
   276   1        2.0             7.0          5.0
   277   1        2.0             7.0          6.0
   278   1        2.0             7.0          7.0
   279   1        2.0             7.0          8.0
   280   1        2.0             7.0          9.0
   281   1        2.0             8.0          0.0
   282   1        2.0             8.0          1.0
   283   1        2.0             8.0          2.0
   284   1        2.0             8.0          3.0
   285   1        2.0             8.0          4.0
   286   1        2.0             8.0          5.0
   287   1        2.0             8.0          6.0
   288   1        2.0             8.0          7.0
   289   1        2.0             8.0          8.0
   290   1        2.0             8.0          9.0
   291   1        2.0             9.0          0.0
   292   1        2.0             9.0          1.0
   293   1        2.0             9.0          2.0
   294   1        2.0             9.0          3.0
   295   1        2.0             9.0          4.0
   296   1        2.0             9.0          5.0
   297   1        2.0             9.0          6.0
   298   1        2.0             9.0          7.0
   299   1        2.0             9.0          8.0
   300   1        2.0             9.0          9.0
   301   1        3.0             0.0          0.0
   302   1        3.0             0.0          1.0
   303   1        3.0             0.0          2.0
   304   1        3.0             0.0          3.0
   305   1        3.0             0.0          4.0
   306   1        3.0             0.0          5.0
   307   1        3.0             0.0          6.0
   308   1        3.0             0.0          7.0
   309   1        3.0             0.0          8.0
   310   1        3.0             0.0          9.0
   311   1        3.0             1.0          0.0
   312   1        3.0             1.0          1.0
   313   1        3.0             1.0          2.0
   314   1        3.0             1.0          3.0
   315   1        3.0             1.0          4.0
   316   1        3.0             1.0          5.0
   317   1        3.0             1.0          6.0
   318   1        3.0             1.0          7.0
   319   1        3.0             1.0          8.0
   320   1        3.0             1.0          9.0
   321   1        3.0             2.0          0.0
   322   1        3.0             2.0          1.0
   323   1        3.0             2.0          2.0
   324   1        3.0             2.0          3.0
   325   1        3.0             2.0          4.0
   326   1        3.0             2.0          5.0
   327   1        3.0             2.0          6.0
   328   1        3.0             2.0          7.0
   329   1        3.0             2.0          8.0
   330   1        3.0             2.0          9.0
   331   1        3.0             3.0          0.0
   332   1        3.0             3.0          1.0
   333   1        3.0             3.0          2.0
   334   1        3.0             3.0          3.0
   335   1        3.0             3.0          4.0
   336   1        3.0             3.0          5.0
   337   1        3.0             3.0          6.0
   338   1        3.0             3.0          7.0
   339   1        3.0             3.0          8.0
   340   1        3.0             3.0          9.0
   341   1        3.0             4.0          0.0
   342   1        3.0             4.0          1.0
   343   1        3.0             4.0          2.0
   344   1        3.0             4.0          3.0
   345   1        3.0             4.0          4.0
   346   1        3.0             4.0          5.0
   347   1        3.0             4.0          6.0
   348   1        3.0             4.0          7.0
   349   1        3.0             4.0          8.0
   350   1        3.0             4.0          9.0
   351   1        3.0             5.0          0.0
   352   1        3.0             5.0          1.0
   353   1        3.0             5.0          2.0
   354   1        3.0             5.0          3.0
   355   1        3.0             5.0          4.0
   356   1        3.0             5.0          5.0
   357   1        3.0             5.0          6.0
   358   1        3.0             5.0          7.0
   359   1        3.0             5.0          8.0
   360   1        3.0             5.0          9.0
   361   1        3.0             6.0          0.0
   362   1        3.0             6.0          1.0
   363   1        3.0             6.0          2.0
   364   1        3.0             6.0          3.0
   365   1        3.0             6.0          4.0
   366   1        3.0             6.0          5.0
   367   1        3.0             6.0          6.0
   368   1        3.0             6.0          7.0
   369   1        3.0             6.0          8.0
   370   1        3.0             6.0          9.0
   371   1        3.0             7.0          0.0
   372   1        3.0             7.0          1.0
   373   1        3.0             7.0          2.0
   374   1        3.0             7.0          3.0
   375   1        3.0             7.0          4.0
   376   1        3.0             7.0          5.0
   377   1        3.0             7.0          6.0
   378   1        3.0             7.0          7.0
   379   1        3.0             7.0          8.0
   380   1        3.0             7.0          9.0
   381   1        3.0             8.0          0.0
   382   1        3.0             8.0          1.0
   383   1        3.0             8.0          2.0
   384   1        3.0             8.0          3.0
   385   1        3.0             8.0          4.0
   386   1        3.0             8.0          5.0
   387   1        3.0             8.0          6.0
   388   1        3.0             8.0          7.0
   389   1        3.0             8.0          8.0
   390   1        3.0             8.0          9.0
   391   1        3.0             9.0          0.0
   392   1        3.0             9.0          1.0
   393   1        3.0             9.0          2.0
   394   1        3.0             9.0          3.0
   395   1        3.0             9.0          4.0
   396   1        3.0             9.0          5.0
   397   1        3.0             9.0          6.0
   398   1        3.0             9.0          7.0
   399   1        3.0             9.0          8.0
   400   1        3.0             9.0          9.0
   401   1        4.0             0.0          0.0
   402   1        4.0             0.0          1.0
   403   1        4.0             0.0          2.0
   404   1        4.0             0.0          3.0
   405   1        4.0             0.0          4.0
   406   1        4.0             0.0          5.0
   407   1        4.0             0.0          6.0
   408   1        4.0             0.0          7.0
   409   1        4.0             0.0          8.0
   410   1        4.0             0.0          9.0
   411   1        4.0             1.0          0.0
   412   1        4.0             1.0          1.0
   413   1        4.0             1.0          2.0
   414   1        4.0             1.0          3.0
   415   1        4.0             1.0          4.0
   416   1        4.0             1.0          5.0
   417   1        4.0             1.0          6.0
   418   1        4.0             1.0          7.0
   419   1        4.0             1.0          8.0
   420   1        4.0             1.0          9.0
   421   1        4.0             2.0          0.0
   422   1        4.0             2.0          1.0
   423   1        4.0             2.0          2.0
   424   1        4.0             2.0          3.0
   425   1        4.0             2.0          4.0
   426   1        4.0             2.0          5.0
   427   1        4.0             2.0          6.0
   428   1        4.0             2.0          7.0
   429   1        4.0             2.0          8.0
   430   1        4.0             2.0          9.0
   431   1        4.0             3.0          0.0
   432   1        4.0             3.0          1.0
   433   1        4.0             3.0          2.0
   434   1        4.0             3.0          3.0
   435   1        4.0             3.0          4.0
   436   1        4.0             3.0          5.0
   437   1        4.0             3.0          6.0
   438   1        4.0             3.0          7.0
   439   1        4.0             3.0          8.0
   440   1        4.0             3.0          9.0
   441   1        4.0             4.0          0.0
   442   1        4.0             4.0          1.0
   443   1        4.0             4.0          2.0
   444   1        4.0             4.0          3.0
   445   1        4.0             4.0          4.0
   446   1        4.0             4.0          5.0
   447   1        4.0             4.0          6.0
   448   1        4.0             4.0          7.0
   449   1        4.0             4.0          8.0
   450   1        4.0             4.0          9.0
   451   1        4.0             5.0          0.0
   452   1        4.0             5.0          1.0
   453   1        4.0             5.0          2.0
   454   1        4.0             5.0          3.0
   455   1        4.0             5.0          4.0
   456   1        4.0             5.0          5.0
   457   1        4.0             5.0          6.0
   458   1        4.0             5.0          7.0
   459   1        4.0             5.0          8.0
   460   1        4.0             5.0          9.0
   461   1        4.0             6.0          0.0
   462   1        4.0             6.0          1.0
   463   1        4.0             6.0          2.0
   464   1        4.0             6.0          3.0
   465   1        4.0             6.0          4.0
   466   1        4.0             6.0          5.0
   467   1        4.0             6.0          6.0
   468   1        4.0             6.0          7.0
   469   1        4.0             6.0          8.0
   470   1        4.0             6.0          9.0
   471   1        4.0             7.0          0.0
   472   1        4.0             7.0          1.0
   473   1        4.0             7.0          2.0
   474   1        4.0             7.0          3.0
   475   1        4.0             7.0          4.0
   476   1        4.0             7.0          5.0
   477   1        4.0             7.0          6.0
   478   1        4.0             7.0          7.0
   479   1        4.0             7.0          8.0
   480   1        4.0             7.0          9.0
   481   1        4.0             8.0          0.0
   482   1        4.0             8.0          1.0
   483   1        4.0             8.0          2.0
   484   1        4.0             8.0          3.0
   485   1        4.0             8.0          4.0
   486   1        4.0             8.0          5.0
   487   1        4.0             8.0          6.0
   488   1        4.0             8.0          7.0
   489   1        4.0             8.0          8.0
   490   1        4.0             8.0          9.0
   491   1        4.0             9.0          0.0
   492   1        4.0             9.0          1.0
   493   1        4.0             9.0          2.0
   494   1        4.0             9.0          3.0
   495   1        4.0             9.0          4.0
   496   1        4.0             9.0          5.0
   497   1        4.0             9.0          6.0
   498   1        4.0             9.0          7.0
   499   1        4.0             9.0          8.0
   500   1        4.0             9.0          9.0
   501   1        5.0             0.0          0.0
   502   1        5.0             0.0          1.0
   503   1        5.0             0.0          2.0
   504   1        5.0             0.0          3.0
   505   1        5.0             0.0          4.0
   506   1        5.0             0.0          5.0
   507   1        5.0             0.0          6.0
   508   1        5.0             0.0          7.0
   509   1        5.0             0.0          8.0
   510   1        5.0             0.0          9.0
   511   1        5.0             1.0          0.0
   512   1        5.0             1.0          1.0
   513   1        5.0             1.0          2.0
   514   1        5.0             1.0          3.0
   515   1        5.0             1.0          4.0
   516   1        5.0             1.0          5.0
   517   1        5.0             1.0          6.0
   518   1        5.0             1.0          7.0
   519   1        5.0             1.0          8.0
   520   1        5.0             1.0          9.0
   521   1        5.0             2.0          0.0
   522   1        5.0             2.0          1.0
   523   1        5.0             2.0          2.0
   524   1        5.0             2.0          3.0
   525   1        5.0             2.0          4.0
   526   1        5.0             2.0          5.0
   527   1        5.0             2.0          6.0
   528   1        5.0             2.0          7.0
   529   1        5.0             2.0          8.0
   530   1        5.0             2.0          9.0
   531   1        5.0             3.0          0.0
   532   1        5.0             3.0          1.0
   533   1        5.0             3.0          2.0
   534   1        5.0             3.0          3.0
   535   1        5.0             3.0          4.0
   536   1        5.0             3.0          5.0
   537   1        5.0             3.0          6.0
   538   1        5.0             3.0          7.0
   539   1        5.0             3.0          8.0
   540   1        5.0             3.0          9.0
   541   1        5.0             4.0          0.0
   542   1        5.0             4.0          1.0
   543   1        5.0             4.0          2.0
   544   1        5.0             4.0          3.0
   545   1        5.0             4.0          4.0
   546   1        5.0             4.0          5.0
   547   1        5.0             4.0          6.0
   548   1        5.0             4.0          7.0
   549   1        5.0             4.0          8.0
   550   1        5.0             4.0          9.0
   551   1        5.0             5.0          0.0
   552   1        5.0             5.0          1.0
   553   1        5.0             5.0          2.0
   554   1        5.0             5.0          3.0
   555   1        5.0             5.0          4.0
   556   1        5.0             5.0          5.0
   557   1        5.0             5.0          6.0
   558   1        5.0             5.0          7.0
   559   1        5.0             5.0          8.0
   560   1        5.0             5.0          9.0
   561   1        5.0             6.0          0.0
   562   1        5.0             6.0          1.0
   563   1        5.0             6.0          2.0
   564   1        5.0             6.0          3.0
   565   1        5.0             6.0          4.0
   566   1        5.0             6.0          5.0
   567   1        5.0             6.0          6.0
   568   1        5.0             6.0          7.0
   569   1        5.0             6.0          8.0
   570   1        5.0             6.0          9.0
   571   1        5.0             7.0          0.0
   572   1        5.0             7.0          1.0
   573   1        5.0             7.0          2.0
   574   1        5.0             7.0          3.0
   575   1        5.0             7.0          4.0
   576   1        5.0             7.0          5.0
   577   1        5.0             7.0          6.0
   578   1        5.0             7.0          7.0
   579   1        5.0             7.0          8.0
   580   1        5.0             7.0          9.0
   581   1        5.0             8.0          0.0
   582   1        5.0             8.0          1.0
   583   1        5.0             8.0          2.0
   584   1        5.0             8.0          3.0
   585   1        5.0             8.0          4.0